<?xml version="1.0" encoding="UTF-8"?>

<!-- generated on 2023-04-30 00:48:38 by Eclipse SUMO sumo Version 1.16.0
<configuration xmlns:xsi="http://www.w3.org/2001/XMLSchema-instance" xsi:noNamespaceSchemaLocation="http://sumo.dlr.de/xsd/sumoConfiguration.xsd">

    <input>
        <net-file value="C:\Users\Local_Man\Desktop\Stolen%20Music\school%20stuff%20for%20college\Semester%2015%20(UH%20Graduate%20School)\COSC%206364%20Nikolaos\SUMO_Project\COSC6364_Project\configurations\maps\Braess_Homebrew_fixed1.net.xml"/>
        <route-files value="./configurations/Rounds/Braess_Homebrew_fixed1.net.xml-test-4/Macroscopic_DUE/011/Trips_File_011.rou.xml"/>
    </input>

    <output>
        <summary-output value="./configurations/Rounds/Braess_Homebrew_fixed1.net.xml-test-4/Macroscopic_DUE/011/summary.xml"/>
        <tripinfo-output value="./configurations/Rounds/Braess_Homebrew_fixed1.net.xml-test-4/Macroscopic_DUE/011/trips.trips.xml"/>
        <statistic-output value="./configurations/Rounds/Braess_Homebrew_fixed1.net.xml-test-4/Macroscopic_DUE/011/stats_output.xml"/>
    </output>

    <time>
        <begin value="0"/>
    </time>

    <report>
        <log value="./configurations/Rounds/Braess_Homebrew_fixed1.net.xml-test-4/Macroscopic_DUE/011/log.sumo.log"/>
        <no-step-log value="true"/>
    </report>

    <gui_only>
        <quit-on-end value="true"/>
    </gui_only>

</configuration>
-->

<tripinfos xmlns:xsi="http://www.w3.org/2001/XMLSchema-instance" xsi:noNamespaceSchemaLocation="http://sumo.dlr.de/xsd/tripinfo_file.xsd">
    <tripinfo id="2" depart="4.00" departLane="E0_0" departPos="5.10" departSpeed="19.50" departDelay="0.00" arrival="97.00" arrivalLane="E3_0" arrivalPos="90.46" arrivalSpeed="28.39" duration="93.00" routeLength="1314.99" waitingTime="0.00" waitingCount="0" stopTime="0.00" timeLoss="9.23" rerouteNo="0" devices="tripinfo_2" vType="DEFAULT_VEHTYPE" speedFactor="0.98" vaporized=""/>
    <tripinfo id="4" depart="10.00" departLane="E0_0" departPos="5.10" departSpeed="24.01" departDelay="0.00" arrival="99.00" arrivalLane="E3_0" arrivalPos="90.46" arrivalSpeed="32.02" duration="89.00" routeLength="1314.99" waitingTime="0.00" waitingCount="0" stopTime="0.00" timeLoss="20.16" rerouteNo="0" devices="tripinfo_4" vType="DEFAULT_VEHTYPE" speedFactor="1.20" vaporized=""/>
    <tripinfo id="5" depart="11.00" departLane="E0_0" departPos="5.10" departSpeed="20.92" departDelay="1.00" arrival="102.00" arrivalLane="E3_0" arrivalPos="90.46" arrivalSpeed="31.12" duration="91.00" routeLength="1314.99" waitingTime="0.00" waitingCount="0" stopTime="0.00" timeLoss="11.86" rerouteNo="0" devices="tripinfo_5" vType="DEFAULT_VEHTYPE" speedFactor="1.05" vaporized=""/>
    <tripinfo id="7" depart="13.00" departLane="E0_0" departPos="5.10" departSpeed="16.81" departDelay="2.00" arrival="114.00" arrivalLane="E3_0" arrivalPos="90.46" arrivalSpeed="27.34" duration="101.00" routeLength="1314.99" waitingTime="0.00" waitingCount="0" stopTime="0.00" timeLoss="12.87" rerouteNo="0" devices="tripinfo_7" vType="DEFAULT_VEHTYPE" speedFactor="0.94" vaporized=""/>
    <tripinfo id="9" depart="15.00" departLane="E0_0" departPos="5.10" departSpeed="10.39" departDelay="1.00" arrival="115.00" arrivalLane="E3_0" arrivalPos="90.46" arrivalSpeed="29.79" duration="100.00" routeLength="1314.99" waitingTime="0.00" waitingCount="0" stopTime="0.00" timeLoss="24.60" rerouteNo="0" devices="tripinfo_9" vType="DEFAULT_VEHTYPE" speedFactor="1.09" vaporized=""/>
    <tripinfo id="10" depart="17.00" departLane="E0_0" departPos="5.10" departSpeed="11.85" departDelay="0.00" arrival="124.00" arrivalLane="E3_0" arrivalPos="90.46" arrivalSpeed="26.40" duration="107.00" routeLength="1314.99" waitingTime="0.00" waitingCount="0" stopTime="0.00" timeLoss="17.43" rerouteNo="0" devices="tripinfo_10" vType="DEFAULT_VEHTYPE" speedFactor="0.92" vaporized=""/>
    <tripinfo id="13" depart="21.00" departLane="E0_0" departPos="5.10" departSpeed="4.81" departDelay="2.00" arrival="129.00" arrivalLane="E3_0" arrivalPos="90.46" arrivalSpeed="26.95" duration="108.00" routeLength="1314.99" waitingTime="0.00" waitingCount="0" stopTime="0.00" timeLoss="19.68" rerouteNo="0" devices="tripinfo_13" vType="DEFAULT_VEHTYPE" speedFactor="0.93" vaporized=""/>
    <tripinfo id="15" depart="25.00" departLane="E0_0" departPos="5.10" departSpeed="3.88" departDelay="5.00" arrival="134.00" arrivalLane="E3_0" arrivalPos="90.46" arrivalSpeed="27.73" duration="109.00" routeLength="1314.99" waitingTime="0.00" waitingCount="0" stopTime="0.00" timeLoss="21.42" rerouteNo="0" devices="tripinfo_15" vType="DEFAULT_VEHTYPE" speedFactor="0.94" vaporized=""/>
    <tripinfo id="16" depart="27.00" departLane="E0_0" departPos="5.10" departSpeed="4.47" departDelay="7.00" arrival="136.00" arrivalLane="E3_0" arrivalPos="90.46" arrivalSpeed="30.39" duration="109.00" routeLength="1314.99" waitingTime="0.00" waitingCount="0" stopTime="0.00" timeLoss="32.73" rerouteNo="0" devices="tripinfo_16" vType="DEFAULT_VEHTYPE" speedFactor="1.08" vaporized=""/>
    <tripinfo id="17" depart="29.00" departLane="E0_0" departPos="5.10" departSpeed="1.80" departDelay="7.00" arrival="137.00" arrivalLane="E3_0" arrivalPos="90.46" arrivalSpeed="29.79" duration="108.00" routeLength="1314.99" waitingTime="0.00" waitingCount="0" stopTime="0.00" timeLoss="26.91" rerouteNo="0" devices="tripinfo_17" vType="DEFAULT_VEHTYPE" speedFactor="1.01" vaporized=""/>
    <tripinfo id="18" depart="32.00" departLane="E0_0" departPos="5.10" departSpeed="4.95" departDelay="9.00" arrival="139.00" arrivalLane="E3_0" arrivalPos="90.46" arrivalSpeed="30.08" duration="107.00" routeLength="1314.99" waitingTime="0.00" waitingCount="0" stopTime="0.00" timeLoss="26.88" rerouteNo="0" devices="tripinfo_18" vType="DEFAULT_VEHTYPE" speedFactor="1.03" vaporized=""/>
    <tripinfo id="19" depart="34.00" departLane="E0_0" departPos="5.10" departSpeed="4.95" departDelay="10.00" arrival="148.00" arrivalLane="E3_0" arrivalPos="90.46" arrivalSpeed="25.98" duration="114.00" routeLength="1314.99" waitingTime="0.00" waitingCount="0" stopTime="0.00" timeLoss="21.85" rerouteNo="0" devices="tripinfo_19" vType="DEFAULT_VEHTYPE" speedFactor="0.89" vaporized=""/>
    <tripinfo id="25" depart="48.00" departLane="E0_0" departPos="5.10" departSpeed="3.20" departDelay="18.00" arrival="150.00" arrivalLane="E3_0" arrivalPos="90.46" arrivalSpeed="30.18" duration="102.00" routeLength="1314.99" waitingTime="0.00" waitingCount="0" stopTime="0.00" timeLoss="30.51" rerouteNo="0" devices="tripinfo_25" vType="DEFAULT_VEHTYPE" speedFactor="1.15" vaporized=""/>
    <tripinfo id="26" depart="51.00" departLane="E0_0" departPos="5.10" departSpeed="6.35" departDelay="19.00" arrival="151.00" arrivalLane="E3_0" arrivalPos="90.46" arrivalSpeed="29.67" duration="100.00" routeLength="1314.99" waitingTime="0.00" waitingCount="0" stopTime="0.00" timeLoss="26.43" rerouteNo="0" devices="tripinfo_26" vType="DEFAULT_VEHTYPE" speedFactor="1.12" vaporized=""/>
    <tripinfo id="27" depart="53.00" departLane="E0_0" departPos="5.10" departSpeed="6.47" departDelay="21.00" arrival="156.00" arrivalLane="E3_0" arrivalPos="90.46" arrivalSpeed="29.67" duration="103.00" routeLength="1314.99" waitingTime="0.00" waitingCount="0" stopTime="0.00" timeLoss="20.44" rerouteNo="0" devices="tripinfo_27" vType="DEFAULT_VEHTYPE" speedFactor="0.99" vaporized=""/>
    <tripinfo id="29" depart="57.00" departLane="E0_0" departPos="5.10" departSpeed="1.20" departDelay="24.00" arrival="158.00" arrivalLane="E3_0" arrivalPos="90.46" arrivalSpeed="30.27" duration="101.00" routeLength="1314.99" waitingTime="0.00" waitingCount="0" stopTime="0.00" timeLoss="20.77" rerouteNo="0" devices="tripinfo_29" vType="DEFAULT_VEHTYPE" speedFactor="1.02" vaporized=""/>
    <tripinfo id="30" depart="61.00" departLane="E0_0" departPos="5.10" departSpeed="6.65" departDelay="27.00" arrival="167.00" arrivalLane="E3_0" arrivalPos="90.46" arrivalSpeed="27.71" duration="106.00" routeLength="1314.99" waitingTime="0.00" waitingCount="0" stopTime="0.00" timeLoss="18.95" rerouteNo="0" devices="tripinfo_30" vType="DEFAULT_VEHTYPE" speedFactor="0.94" vaporized=""/>
    <tripinfo id="31" depart="63.00" departLane="E0_0" departPos="5.10" departSpeed="7.26" departDelay="29.00" arrival="169.00" arrivalLane="E3_0" arrivalPos="90.46" arrivalSpeed="31.42" duration="106.00" routeLength="1314.99" waitingTime="0.00" waitingCount="0" stopTime="0.00" timeLoss="31.07" rerouteNo="0" devices="tripinfo_31" vType="DEFAULT_VEHTYPE" speedFactor="1.10" vaporized=""/>
    <tripinfo id="3" depart="5.00" departLane="E0_0" departPos="5.10" departSpeed="16.96" departDelay="1.00" arrival="179.00" arrivalLane="E3_0" arrivalPos="90.46" arrivalSpeed="23.77" duration="174.00" routeLength="1317.38" waitingTime="71.00" waitingCount="1" stopTime="0.00" timeLoss="94.85" rerouteNo="0" devices="tripinfo_3" vType="DEFAULT_VEHTYPE" speedFactor="1.08" vaporized=""/>
    <tripinfo id="32" depart="65.00" departLane="E0_0" departPos="5.10" departSpeed="5.98" departDelay="30.00" arrival="184.00" arrivalLane="E3_0" arrivalPos="90.46" arrivalSpeed="24.05" duration="119.00" routeLength="1314.99" waitingTime="0.00" waitingCount="0" stopTime="0.00" timeLoss="20.05" rerouteNo="0" devices="tripinfo_32" vType="DEFAULT_VEHTYPE" speedFactor="0.83" vaporized=""/>
    <tripinfo id="34" depart="70.00" departLane="E0_0" departPos="5.10" departSpeed="2.07" departDelay="34.00" arrival="185.00" arrivalLane="E3_0" arrivalPos="90.46" arrivalSpeed="25.95" duration="115.00" routeLength="1314.99" waitingTime="0.00" waitingCount="0" stopTime="0.00" timeLoss="37.87" rerouteNo="0" devices="tripinfo_34" vType="DEFAULT_VEHTYPE" speedFactor="1.07" vaporized=""/>
    <tripinfo id="6" depart="12.00" departLane="E0_0" departPos="5.10" departSpeed="18.89" departDelay="2.00" arrival="198.00" arrivalLane="E3_0" arrivalPos="90.46" arrivalSpeed="27.74" duration="186.00" routeLength="1317.38" waitingTime="78.00" waitingCount="2" stopTime="0.00" timeLoss="106.05" rerouteNo="0" devices="tripinfo_6" vType="DEFAULT_VEHTYPE" speedFactor="1.08" vaporized=""/>
    <tripinfo id="36" depart="75.00" departLane="E0_0" departPos="5.10" departSpeed="3.77" departDelay="35.00" arrival="201.00" arrivalLane="E3_0" arrivalPos="90.46" arrivalSpeed="22.96" duration="126.00" routeLength="1314.99" waitingTime="0.00" waitingCount="0" stopTime="0.00" timeLoss="19.16" rerouteNo="0" devices="tripinfo_36" vType="DEFAULT_VEHTYPE" speedFactor="0.77" vaporized=""/>
    <tripinfo id="38" depart="80.00" departLane="E0_0" departPos="5.10" departSpeed="5.04" departDelay="34.00" arrival="202.00" arrivalLane="E3_0" arrivalPos="90.46" arrivalSpeed="24.70" duration="122.00" routeLength="1314.99" waitingTime="0.00" waitingCount="0" stopTime="0.00" timeLoss="41.65" rerouteNo="0" devices="tripinfo_38" vType="DEFAULT_VEHTYPE" speedFactor="1.02" vaporized=""/>
    <tripinfo id="39" depart="82.00" departLane="E0_0" departPos="5.10" departSpeed="4.05" departDelay="36.00" arrival="204.00" arrivalLane="E3_0" arrivalPos="90.46" arrivalSpeed="25.08" duration="122.00" routeLength="1314.99" waitingTime="0.00" waitingCount="0" stopTime="0.00" timeLoss="27.97" rerouteNo="0" devices="tripinfo_39" vType="DEFAULT_VEHTYPE" speedFactor="0.88" vaporized=""/>
    <tripinfo id="40" depart="84.00" departLane="E0_0" departPos="5.10" departSpeed="1.56" departDelay="33.00" arrival="205.00" arrivalLane="E3_0" arrivalPos="90.46" arrivalSpeed="25.68" duration="121.00" routeLength="1314.99" waitingTime="0.00" waitingCount="0" stopTime="0.00" timeLoss="44.14" rerouteNo="0" devices="tripinfo_40" vType="DEFAULT_VEHTYPE" speedFactor="1.06" vaporized=""/>
    <tripinfo id="42" depart="90.00" departLane="E0_0" departPos="5.10" departSpeed="3.46" departDelay="37.00" arrival="207.00" arrivalLane="E3_0" arrivalPos="90.46" arrivalSpeed="27.18" duration="117.00" routeLength="1314.99" waitingTime="0.00" waitingCount="0" stopTime="0.00" timeLoss="38.12" rerouteNo="0" devices="tripinfo_42" vType="DEFAULT_VEHTYPE" speedFactor="1.05" vaporized=""/>
    <tripinfo id="43" depart="92.00" departLane="E0_0" departPos="5.10" departSpeed="1.43" departDelay="37.00" arrival="208.00" arrivalLane="E3_0" arrivalPos="90.46" arrivalSpeed="25.77" duration="116.00" routeLength="1314.99" waitingTime="0.00" waitingCount="0" stopTime="0.00" timeLoss="34.18" rerouteNo="0" devices="tripinfo_43" vType="DEFAULT_VEHTYPE" speedFactor="1.00" vaporized=""/>
    <tripinfo id="44" depart="95.00" departLane="E0_0" departPos="5.10" departSpeed="4.51" departDelay="40.00" arrival="210.00" arrivalLane="E3_0" arrivalPos="90.46" arrivalSpeed="27.70" duration="115.00" routeLength="1314.99" waitingTime="0.00" waitingCount="0" stopTime="0.00" timeLoss="40.14" rerouteNo="0" devices="tripinfo_44" vType="DEFAULT_VEHTYPE" speedFactor="1.10" vaporized=""/>
    <tripinfo id="45" depart="97.00" departLane="E0_0" departPos="5.10" departSpeed="1.82" departDelay="41.00" arrival="211.00" arrivalLane="E3_0" arrivalPos="90.46" arrivalSpeed="26.38" duration="114.00" routeLength="1314.99" waitingTime="0.00" waitingCount="0" stopTime="0.00" timeLoss="22.81" rerouteNo="0" devices="tripinfo_45" vType="DEFAULT_VEHTYPE" speedFactor="0.90" vaporized=""/>
    <tripinfo id="46" depart="100.00" departLane="E0_0" departPos="5.10" departSpeed="1.78" departDelay="44.00" arrival="213.00" arrivalLane="E3_0" arrivalPos="90.46" arrivalSpeed="28.62" duration="113.00" routeLength="1314.99" waitingTime="0.00" waitingCount="0" stopTime="0.00" timeLoss="27.27" rerouteNo="0" devices="tripinfo_46" vType="DEFAULT_VEHTYPE" speedFactor="0.96" vaporized=""/>
    <tripinfo id="50" depart="109.00" departLane="E0_0" departPos="5.10" departSpeed="0.31" departDelay="45.00" arrival="214.00" arrivalLane="E3_0" arrivalPos="90.46" arrivalSpeed="29.30" duration="105.00" routeLength="1314.99" waitingTime="0.00" waitingCount="0" stopTime="0.00" timeLoss="22.94" rerouteNo="0" devices="tripinfo_50" vType="DEFAULT_VEHTYPE" speedFactor="1.00" vaporized=""/>
    <tripinfo id="51" depart="113.00" departLane="E0_0" departPos="5.10" departSpeed="6.95" departDelay="46.00" arrival="216.00" arrivalLane="E3_0" arrivalPos="90.46" arrivalSpeed="29.55" duration="103.00" routeLength="1314.99" waitingTime="0.00" waitingCount="0" stopTime="0.00" timeLoss="20.06" rerouteNo="0" devices="tripinfo_51" vType="DEFAULT_VEHTYPE" speedFactor="0.99" vaporized=""/>
    <tripinfo id="53" depart="117.00" departLane="E0_0" departPos="5.10" departSpeed="7.70" departDelay="48.00" arrival="227.00" arrivalLane="E3_0" arrivalPos="90.46" arrivalSpeed="26.53" duration="110.00" routeLength="1314.99" waitingTime="0.00" waitingCount="0" stopTime="0.00" timeLoss="19.57" rerouteNo="0" devices="tripinfo_53" vType="DEFAULT_VEHTYPE" speedFactor="0.91" vaporized=""/>
    <tripinfo id="54" depart="119.00" departLane="E0_0" departPos="5.10" departSpeed="9.03" departDelay="45.00" arrival="229.00" arrivalLane="E3_0" arrivalPos="90.46" arrivalSpeed="27.45" duration="110.00" routeLength="1314.99" waitingTime="0.00" waitingCount="0" stopTime="0.00" timeLoss="23.13" rerouteNo="0" devices="tripinfo_54" vType="DEFAULT_VEHTYPE" speedFactor="0.95" vaporized=""/>
    <tripinfo id="56" depart="122.00" departLane="E0_0" departPos="5.10" departSpeed="3.03" departDelay="47.00" arrival="234.00" arrivalLane="E3_0" arrivalPos="90.46" arrivalSpeed="27.03" duration="112.00" routeLength="1314.99" waitingTime="0.00" waitingCount="0" stopTime="0.00" timeLoss="23.56" rerouteNo="0" devices="tripinfo_56" vType="DEFAULT_VEHTYPE" speedFactor="0.93" vaporized=""/>
    <tripinfo id="8" depart="14.00" departLane="E0_0" departPos="5.10" departSpeed="14.10" departDelay="3.00" arrival="243.00" arrivalLane="E3_0" arrivalPos="90.46" arrivalSpeed="23.42" duration="229.00" routeLength="1317.38" waitingTime="113.00" waitingCount="3" stopTime="0.00" timeLoss="144.78" rerouteNo="0" devices="tripinfo_8" vType="DEFAULT_VEHTYPE" speedFactor="1.02" vaporized=""/>
    <tripinfo id="62" depart="138.00" departLane="E0_0" departPos="5.10" departSpeed="2.47" departDelay="58.00" arrival="247.00" arrivalLane="E3_0" arrivalPos="90.46" arrivalSpeed="25.63" duration="109.00" routeLength="1314.99" waitingTime="0.00" waitingCount="0" stopTime="0.00" timeLoss="17.91" rerouteNo="0" devices="tripinfo_62" vType="DEFAULT_VEHTYPE" speedFactor="0.90" vaporized=""/>
    <tripinfo id="64" depart="144.00" departLane="E0_0" departPos="5.10" departSpeed="0.40" departDelay="61.00" arrival="249.00" arrivalLane="E3_0" arrivalPos="90.46" arrivalSpeed="30.91" duration="105.00" routeLength="1314.99" waitingTime="0.00" waitingCount="0" stopTime="0.00" timeLoss="28.57" rerouteNo="0" devices="tripinfo_64" vType="DEFAULT_VEHTYPE" speedFactor="1.08" vaporized=""/>
    <tripinfo id="65" depart="148.00" departLane="E0_0" departPos="5.10" departSpeed="5.76" departDelay="65.00" arrival="250.00" arrivalLane="E3_0" arrivalPos="90.46" arrivalSpeed="29.26" duration="102.00" routeLength="1314.99" waitingTime="0.00" waitingCount="0" stopTime="0.00" timeLoss="17.73" rerouteNo="0" devices="tripinfo_65" vType="DEFAULT_VEHTYPE" speedFactor="0.98" vaporized=""/>
    <tripinfo id="66" depart="150.00" departLane="E0_0" departPos="5.10" departSpeed="6.74" departDelay="64.00" arrival="251.00" arrivalLane="E3_0" arrivalPos="90.46" arrivalSpeed="29.31" duration="101.00" routeLength="1314.99" waitingTime="0.00" waitingCount="0" stopTime="0.00" timeLoss="17.50" rerouteNo="0" devices="tripinfo_66" vType="DEFAULT_VEHTYPE" speedFactor="0.98" vaporized=""/>
    <tripinfo id="68" depart="154.00" departLane="E0_0" departPos="5.10" departSpeed="6.57" departDelay="67.00" arrival="258.00" arrivalLane="E3_0" arrivalPos="90.46" arrivalSpeed="27.90" duration="104.00" routeLength="1314.99" waitingTime="0.00" waitingCount="0" stopTime="0.00" timeLoss="17.05" rerouteNo="0" devices="tripinfo_68" vType="DEFAULT_VEHTYPE" speedFactor="0.94" vaporized=""/>
    <tripinfo id="75" depart="170.00" departLane="E0_0" departPos="5.10" departSpeed="6.41" departDelay="79.00" arrival="260.00" arrivalLane="E3_0" arrivalPos="90.46" arrivalSpeed="32.86" duration="90.00" routeLength="1314.99" waitingTime="0.00" waitingCount="0" stopTime="0.00" timeLoss="15.58" rerouteNo="0" devices="tripinfo_75" vType="DEFAULT_VEHTYPE" speedFactor="1.10" vaporized=""/>
    <tripinfo id="76" depart="172.00" departLane="E0_0" departPos="5.10" departSpeed="6.99" departDelay="81.00" arrival="262.00" arrivalLane="E3_0" arrivalPos="90.46" arrivalSpeed="34.20" duration="90.00" routeLength="1314.99" waitingTime="0.00" waitingCount="0" stopTime="0.00" timeLoss="17.80" rerouteNo="0" devices="tripinfo_76" vType="DEFAULT_VEHTYPE" speedFactor="1.14" vaporized=""/>
    <tripinfo id="80" depart="180.00" departLane="E0_0" departPos="5.10" departSpeed="1.82" departDelay="86.00" arrival="272.00" arrivalLane="E3_0" arrivalPos="90.46" arrivalSpeed="31.62" duration="92.00" routeLength="1314.99" waitingTime="0.00" waitingCount="0" stopTime="0.00" timeLoss="15.95" rerouteNo="0" devices="tripinfo_80" vType="DEFAULT_VEHTYPE" speedFactor="1.08" vaporized=""/>
    <tripinfo id="83" depart="188.00" departLane="E0_0" departPos="5.10" departSpeed="5.17" departDelay="89.00" arrival="280.00" arrivalLane="E3_0" arrivalPos="90.46" arrivalSpeed="31.77" duration="92.00" routeLength="1314.99" waitingTime="0.00" waitingCount="0" stopTime="0.00" timeLoss="14.90" rerouteNo="0" devices="tripinfo_83" vType="DEFAULT_VEHTYPE" speedFactor="1.06" vaporized=""/>
    <tripinfo id="86" depart="194.00" departLane="E0_0" departPos="5.10" departSpeed="6.62" departDelay="90.00" arrival="289.00" arrivalLane="E3_0" arrivalPos="90.46" arrivalSpeed="29.61" duration="95.00" routeLength="1314.99" waitingTime="0.00" waitingCount="0" stopTime="0.00" timeLoss="15.08" rerouteNo="0" devices="tripinfo_86" vType="DEFAULT_VEHTYPE" speedFactor="1.02" vaporized=""/>
    <tripinfo id="89" depart="199.00" departLane="E0_0" departPos="5.10" departSpeed="3.83" departDelay="93.00" arrival="291.00" arrivalLane="E3_0" arrivalPos="90.46" arrivalSpeed="33.19" duration="92.00" routeLength="1314.99" waitingTime="0.00" waitingCount="0" stopTime="0.00" timeLoss="21.73" rerouteNo="0" devices="tripinfo_89" vType="DEFAULT_VEHTYPE" speedFactor="1.18" vaporized=""/>
    <tripinfo id="11" depart="18.00" departLane="E0_0" departPos="5.10" departSpeed="7.71" departDelay="0.00" arrival="301.00" arrivalLane="E3_0" arrivalPos="90.46" arrivalSpeed="24.86" duration="283.00" routeLength="1317.38" waitingTime="161.00" waitingCount="4" stopTime="0.00" timeLoss="206.36" rerouteNo="0" devices="tripinfo_11" vType="DEFAULT_VEHTYPE" speedFactor="1.12" vaporized=""/>
    <tripinfo id="92" depart="206.00" departLane="E0_0" departPos="5.10" departSpeed="5.48" departDelay="98.00" arrival="304.00" arrivalLane="E3_0" arrivalPos="90.46" arrivalSpeed="28.17" duration="98.00" routeLength="1314.99" waitingTime="0.00" waitingCount="0" stopTime="0.00" timeLoss="14.29" rerouteNo="0" devices="tripinfo_92" vType="DEFAULT_VEHTYPE" speedFactor="0.98" vaporized=""/>
    <tripinfo id="93" depart="208.00" departLane="E0_0" departPos="5.10" departSpeed="6.35" departDelay="99.00" arrival="311.00" arrivalLane="E3_0" arrivalPos="90.46" arrivalSpeed="27.78" duration="103.00" routeLength="1314.99" waitingTime="0.00" waitingCount="0" stopTime="0.00" timeLoss="15.73" rerouteNo="0" devices="tripinfo_93" vType="DEFAULT_VEHTYPE" speedFactor="0.94" vaporized=""/>
    <tripinfo id="94" depart="210.00" departLane="E0_0" departPos="5.10" departSpeed="6.90" departDelay="101.00" arrival="312.00" arrivalLane="E3_0" arrivalPos="90.46" arrivalSpeed="29.74" duration="102.00" routeLength="1314.99" waitingTime="0.00" waitingCount="0" stopTime="0.00" timeLoss="23.09" rerouteNo="0" devices="tripinfo_94" vType="DEFAULT_VEHTYPE" speedFactor="1.03" vaporized=""/>
    <tripinfo id="96" depart="214.00" departLane="E0_0" departPos="5.10" departSpeed="8.59" departDelay="102.00" arrival="322.00" arrivalLane="E3_0" arrivalPos="90.46" arrivalSpeed="25.51" duration="108.00" routeLength="1314.99" waitingTime="0.00" waitingCount="0" stopTime="0.00" timeLoss="14.53" rerouteNo="0" devices="tripinfo_96" vType="DEFAULT_VEHTYPE" speedFactor="0.89" vaporized=""/>
    <tripinfo id="100" depart="221.00" departLane="E0_0" departPos="5.10" departSpeed="4.17" departDelay="103.00" arrival="323.00" arrivalLane="E3_0" arrivalPos="90.46" arrivalSpeed="28.55" duration="102.00" routeLength="1314.99" waitingTime="0.00" waitingCount="0" stopTime="0.00" timeLoss="27.32" rerouteNo="0" devices="tripinfo_100" vType="DEFAULT_VEHTYPE" speedFactor="1.10" vaporized=""/>
    <tripinfo id="12" depart="20.00" departLane="E0_0" departPos="5.10" departSpeed="8.71" departDelay="2.00" arrival="332.00" arrivalLane="E3_0" arrivalPos="90.46" arrivalSpeed="24.03" duration="312.00" routeLength="1317.38" waitingTime="174.00" waitingCount="5" stopTime="0.00" timeLoss="216.94" rerouteNo="0" devices="tripinfo_12" vType="DEFAULT_VEHTYPE" speedFactor="0.90" vaporized=""/>
    <tripinfo id="14" depart="23.00" departLane="E0_0" departPos="5.10" departSpeed="3.78" departDelay="4.00" arrival="334.00" arrivalLane="E3_0" arrivalPos="90.46" arrivalSpeed="26.22" duration="311.00" routeLength="1317.38" waitingTime="170.00" waitingCount="5" stopTime="0.00" timeLoss="228.52" rerouteNo="0" devices="tripinfo_14" vType="DEFAULT_VEHTYPE" speedFactor="1.04" vaporized=""/>
    <tripinfo id="20" depart="36.00" departLane="E0_0" departPos="5.10" departSpeed="5.19" departDelay="12.00" arrival="337.00" arrivalLane="E3_0" arrivalPos="90.46" arrivalSpeed="24.64" duration="301.00" routeLength="1317.38" waitingTime="162.00" waitingCount="5" stopTime="0.00" timeLoss="215.76" rerouteNo="0" devices="tripinfo_20" vType="DEFAULT_VEHTYPE" speedFactor="1.01" vaporized=""/>
    <tripinfo id="102" depart="226.00" departLane="E0_0" departPos="5.10" departSpeed="2.40" departDelay="106.00" arrival="343.00" arrivalLane="E3_0" arrivalPos="90.46" arrivalSpeed="24.47" duration="117.00" routeLength="1314.99" waitingTime="0.00" waitingCount="0" stopTime="0.00" timeLoss="18.82" rerouteNo="0" devices="tripinfo_102" vType="DEFAULT_VEHTYPE" speedFactor="0.84" vaporized=""/>
    <tripinfo id="104" depart="232.00" departLane="E0_0" departPos="5.10" departSpeed="0.67" departDelay="111.00" arrival="345.00" arrivalLane="E3_0" arrivalPos="90.46" arrivalSpeed="29.30" duration="113.00" routeLength="1314.99" waitingTime="0.00" waitingCount="0" stopTime="0.00" timeLoss="33.06" rerouteNo="0" devices="tripinfo_104" vType="DEFAULT_VEHTYPE" speedFactor="1.04" vaporized=""/>
    <tripinfo id="106" depart="238.00" departLane="E0_0" departPos="5.10" departSpeed="6.15" departDelay="117.00" arrival="346.00" arrivalLane="E3_0" arrivalPos="90.46" arrivalSpeed="28.04" duration="108.00" routeLength="1314.99" waitingTime="0.00" waitingCount="0" stopTime="0.00" timeLoss="21.84" rerouteNo="0" devices="tripinfo_106" vType="DEFAULT_VEHTYPE" speedFactor="0.95" vaporized=""/>
    <tripinfo id="110" depart="245.00" departLane="E0_0" departPos="5.10" departSpeed="1.72" departDelay="119.00" arrival="347.00" arrivalLane="E3_0" arrivalPos="90.46" arrivalSpeed="28.11" duration="102.00" routeLength="1314.99" waitingTime="0.00" waitingCount="0" stopTime="0.00" timeLoss="21.45" rerouteNo="0" devices="tripinfo_110" vType="DEFAULT_VEHTYPE" speedFactor="1.01" vaporized=""/>
    <tripinfo id="111" depart="248.00" departLane="E0_0" departPos="5.10" departSpeed="2.94" departDelay="119.00" arrival="349.00" arrivalLane="E3_0" arrivalPos="90.46" arrivalSpeed="30.58" duration="101.00" routeLength="1314.99" waitingTime="0.00" waitingCount="0" stopTime="0.00" timeLoss="28.04" rerouteNo="0" devices="tripinfo_111" vType="DEFAULT_VEHTYPE" speedFactor="1.13" vaporized=""/>
    <tripinfo id="112" depart="251.00" departLane="E0_0" departPos="5.10" departSpeed="7.34" departDelay="121.00" arrival="350.00" arrivalLane="E3_0" arrivalPos="90.46" arrivalSpeed="29.73" duration="99.00" routeLength="1314.99" waitingTime="0.00" waitingCount="0" stopTime="0.00" timeLoss="31.29" rerouteNo="0" devices="tripinfo_112" vType="DEFAULT_VEHTYPE" speedFactor="1.21" vaporized=""/>
    <tripinfo id="113" depart="253.00" departLane="E0_0" departPos="5.10" departSpeed="8.63" departDelay="122.00" arrival="362.00" arrivalLane="E3_0" arrivalPos="90.46" arrivalSpeed="25.54" duration="109.00" routeLength="1314.99" waitingTime="0.00" waitingCount="0" stopTime="0.00" timeLoss="16.05" rerouteNo="0" devices="tripinfo_113" vType="DEFAULT_VEHTYPE" speedFactor="0.89" vaporized=""/>
    <tripinfo id="114" depart="255.00" departLane="E0_0" departPos="5.10" departSpeed="8.92" departDelay="124.00" arrival="363.00" arrivalLane="E3_0" arrivalPos="90.46" arrivalSpeed="27.79" duration="108.00" routeLength="1314.99" waitingTime="0.00" waitingCount="0" stopTime="0.00" timeLoss="22.78" rerouteNo="0" devices="tripinfo_114" vType="DEFAULT_VEHTYPE" speedFactor="0.97" vaporized=""/>
    <tripinfo id="115" depart="256.00" departLane="E0_0" departPos="5.10" departSpeed="4.34" departDelay="125.00" arrival="365.00" arrivalLane="E3_0" arrivalPos="90.46" arrivalSpeed="28.48" duration="109.00" routeLength="1314.99" waitingTime="0.00" waitingCount="0" stopTime="0.00" timeLoss="29.29" rerouteNo="0" devices="tripinfo_115" vType="DEFAULT_VEHTYPE" speedFactor="1.04" vaporized=""/>
    <tripinfo id="120" depart="270.00" departLane="E0_0" departPos="5.10" departSpeed="4.63" departDelay="134.00" arrival="366.00" arrivalLane="E3_0" arrivalPos="90.46" arrivalSpeed="28.88" duration="96.00" routeLength="1314.99" waitingTime="0.00" waitingCount="0" stopTime="0.00" timeLoss="14.10" rerouteNo="0" devices="tripinfo_120" vType="DEFAULT_VEHTYPE" speedFactor="1.01" vaporized=""/>
    <tripinfo id="122" depart="274.00" departLane="E0_0" departPos="5.10" departSpeed="1.03" departDelay="137.00" arrival="373.00" arrivalLane="E3_0" arrivalPos="90.46" arrivalSpeed="28.87" duration="99.00" routeLength="1314.99" waitingTime="0.00" waitingCount="0" stopTime="0.00" timeLoss="16.10" rerouteNo="0" devices="tripinfo_122" vType="DEFAULT_VEHTYPE" speedFactor="1.00" vaporized=""/>
    <tripinfo id="21" depart="38.00" departLane="E0_0" departPos="5.10" departSpeed="2.06" departDelay="13.00" arrival="379.00" arrivalLane="E3_0" arrivalPos="90.46" arrivalSpeed="23.84" duration="341.00" routeLength="1317.38" waitingTime="184.00" waitingCount="6" stopTime="0.00" timeLoss="242.61" rerouteNo="0" devices="tripinfo_21" vType="DEFAULT_VEHTYPE" speedFactor="0.87" vaporized=""/>
    <tripinfo id="22" depart="41.00" departLane="E0_0" departPos="5.10" departSpeed="5.41" departDelay="15.00" arrival="381.00" arrivalLane="E3_0" arrivalPos="90.46" arrivalSpeed="24.93" duration="340.00" routeLength="1317.38" waitingTime="181.00" waitingCount="6" stopTime="0.00" timeLoss="256.74" rerouteNo="0" devices="tripinfo_22" vType="DEFAULT_VEHTYPE" speedFactor="1.03" vaporized=""/>
    <tripinfo id="23" depart="43.00" departLane="E0_0" departPos="5.10" departSpeed="2.11" departDelay="14.00" arrival="383.00" arrivalLane="E3_0" arrivalPos="90.46" arrivalSpeed="24.61" duration="340.00" routeLength="1317.38" waitingTime="176.00" waitingCount="6" stopTime="0.00" timeLoss="264.66" rerouteNo="0" devices="tripinfo_23" vType="DEFAULT_VEHTYPE" speedFactor="1.13" vaporized=""/>
    <tripinfo id="24" depart="46.00" departLane="E0_0" departPos="5.10" departSpeed="4.77" departDelay="17.00" arrival="387.00" arrivalLane="E3_0" arrivalPos="90.46" arrivalSpeed="25.00" duration="341.00" routeLength="1317.38" waitingTime="175.00" waitingCount="7" stopTime="0.00" timeLoss="245.08" rerouteNo="0" devices="tripinfo_24" vType="DEFAULT_VEHTYPE" speedFactor="0.89" vaporized=""/>