<?xml version="1.0" encoding="UTF-8"?>

<!-- generated on 2023-04-29 14:48:39 by Eclipse SUMO sumo Version 1.16.0
<configuration xmlns:xsi="http://www.w3.org/2001/XMLSchema-instance" xsi:noNamespaceSchemaLocation="http://sumo.dlr.de/xsd/sumoConfiguration.xsd">

    <input>
        <net-file value="014/../configurations/maps/4corners_neighborhoods.net.xml"/>
        <route-files value="014/Trips_File_014.rou.xml"/>
        <additional-files value="014/../edgedata.add.xml"/>
    </input>

    <output>
        <output-prefix value="014/"/>
        <summary-output value="014/../summary_014.xml"/>
        <tripinfo-output value="014/../tripinfo_014.xml"/>
    </output>

    <time>
        <begin value="0"/>
    </time>

    <processing>
        <route-steps value="200"/>
        <no-internal-links value="False"/>
        <time-to-teleport value="300"/>
        <time-to-teleport.highways value="0"/>
        <eager-insert value="False"/>
    </processing>

    <report>
        <verbose value="true"/>
        <no-warnings value="False"/>
        <log value="014/../iteration_014.sumo.log"/>
        <no-step-log value="true"/>
    </report>

    <random_number>
        <random value="False"/>
    </random_number>

</configuration>
-->

<tripinfos xmlns:xsi="http://www.w3.org/2001/XMLSchema-instance" xsi:noNamespaceSchemaLocation="http://sumo.dlr.de/xsd/tripinfo_file.xsd">
    <tripinfo id="12" depart="14.00" departLane="318908683#0_0" departPos="5.10" departSpeed="0.00" departDelay="0.00" arrival="77.00" arrivalLane="422688976#1_2" arrivalPos="294.40" arrivalSpeed="29.53" duration="63.00" routeLength="940.85" waitingTime="15.00" waitingCount="1" stopTime="0.00" timeLoss="28.69" rerouteNo="0" devices="tripinfo_12" vType="DEFAULT_VEHTYPE" speedFactor="1.09" vaporized=""/>
    <tripinfo id="9" depart="9.00" departLane="318908683#0_0" departPos="5.10" departSpeed="0.00" departDelay="0.00" arrival="79.00" arrivalLane="422688976#1_0" arrivalPos="294.40" arrivalSpeed="24.28" duration="70.00" routeLength="940.85" waitingTime="17.00" waitingCount="1" stopTime="0.00" timeLoss="28.46" rerouteNo="0" devices="tripinfo_9" vType="DEFAULT_VEHTYPE" speedFactor="0.89" vaporized=""/>
    <tripinfo id="26" depart="30.00" departLane="318908683#0_0" departPos="5.10" departSpeed="0.00" departDelay="3.00" arrival="83.00" arrivalLane="918280984_0" arrivalPos="38.78" arrivalSpeed="10.62" duration="53.00" routeLength="693.58" waitingTime="2.00" waitingCount="1" stopTime="0.00" timeLoss="15.25" rerouteNo="0" devices="tripinfo_26" vType="DEFAULT_VEHTYPE" speedFactor="0.83" vaporized=""/>
    <tripinfo id="25" depart="27.00" departLane="318908683#0_0" departPos="5.10" departSpeed="0.00" departDelay="0.00" arrival="85.00" arrivalLane="260998164#0_0" arrivalPos="257.55" arrivalSpeed="24.12" duration="58.00" routeLength="939.98" waitingTime="3.00" waitingCount="1" stopTime="0.00" timeLoss="15.31" rerouteNo="0" devices="tripinfo_25" vType="DEFAULT_VEHTYPE" speedFactor="0.89" vaporized=""/>
    <tripinfo id="13" depart="17.00" departLane="-260998164#3_0" departPos="5.10" departSpeed="0.00" departDelay="0.00" arrival="92.00" arrivalLane="918280984_0" arrivalPos="38.78" arrivalSpeed="14.17" duration="75.00" routeLength="1455.19" waitingTime="0.00" waitingCount="0" stopTime="0.00" timeLoss="19.51" rerouteNo="0" devices="tripinfo_13" vType="DEFAULT_VEHTYPE" speedFactor="1.03" vaporized=""/>
    <tripinfo id="34" depart="36.00" departLane="-260998164#3_0" departPos="5.10" departSpeed="0.00" departDelay="3.00" arrival="106.00" arrivalLane="15374898#0-AddedOffRampEdge_1" arrivalPos="100.00" arrivalSpeed="27.74" duration="70.00" routeLength="1332.80" waitingTime="3.00" waitingCount="1" stopTime="0.00" timeLoss="22.11" rerouteNo="0" devices="tripinfo_34" vType="DEFAULT_VEHTYPE" speedFactor="1.01" vaporized=""/>
    <tripinfo id="38" depart="39.00" departLane="-260998164#3_0" departPos="5.10" departSpeed="0.00" departDelay="2.00" arrival="108.00" arrivalLane="15374898#0-AddedOffRampEdge_1" arrivalPos="100.00" arrivalSpeed="26.64" duration="69.00" routeLength="1332.80" waitingTime="0.00" waitingCount="0" stopTime="0.00" timeLoss="19.53" rerouteNo="0" devices="tripinfo_38" vType="DEFAULT_VEHTYPE" speedFactor="0.97" vaporized=""/>
    <tripinfo id="4" depart="6.00" departLane="597602756#0_0" departPos="5.10" departSpeed="0.00" departDelay="3.00" arrival="110.00" arrivalLane="15374898#0-AddedOffRampEdge_1" arrivalPos="100.00" arrivalSpeed="27.97" duration="104.00" routeLength="1760.61" waitingTime="0.00" waitingCount="0" stopTime="0.00" timeLoss="19.30" rerouteNo="0" devices="tripinfo_4" vType="DEFAULT_VEHTYPE" speedFactor="1.01" vaporized=""/>
    <tripinfo id="2" depart="1.00" departLane="918280985_0" departPos="5.10" departSpeed="0.00" departDelay="0.00" arrival="114.00" arrivalLane="-105681660#20_0" arrivalPos="806.12" arrivalSpeed="22.34" duration="113.00" routeLength="1360.98" waitingTime="28.00" waitingCount="1" stopTime="0.00" timeLoss="41.07" rerouteNo="0" devices="tripinfo_2" vType="DEFAULT_VEHTYPE" speedFactor="1.06" vaporized=""/>
    <tripinfo id="11" depart="13.00" departLane="918280985_0" departPos="5.10" departSpeed="0.00" departDelay="0.00" arrival="114.00" arrivalLane="260998164#0_0" arrivalPos="257.55" arrivalSpeed="23.39" duration="101.00" routeLength="1460.33" waitingTime="19.00" waitingCount="1" stopTime="0.00" timeLoss="35.34" rerouteNo="0" devices="tripinfo_11" vType="DEFAULT_VEHTYPE" speedFactor="0.86" vaporized=""/>
    <tripinfo id="28" depart="30.00" departLane="105681660#12_0" departPos="5.10" departSpeed="0.00" departDelay="1.00" arrival="114.00" arrivalLane="-597602753#1_0" arrivalPos="143.59" arrivalSpeed="19.27" duration="84.00" routeLength="1380.56" waitingTime="0.00" waitingCount="0" stopTime="0.00" timeLoss="14.21" rerouteNo="0" devices="tripinfo_28" vType="DEFAULT_VEHTYPE" speedFactor="0.92" vaporized=""/>
    <tripinfo id="23" depart="27.00" departLane="422688973_0" departPos="5.10" departSpeed="0.00" departDelay="0.00" arrival="115.00" arrivalLane="15374898#0-AddedOffRampEdge_0" arrivalPos="100.00" arrivalSpeed="27.46" duration="88.00" routeLength="1006.54" waitingTime="27.00" waitingCount="2" stopTime="0.00" timeLoss="51.29" rerouteNo="0" devices="tripinfo_23" vType="DEFAULT_VEHTYPE" speedFactor="1.01" vaporized=""/>
    <tripinfo id="35" depart="34.00" departLane="918280985_0" departPos="5.10" departSpeed="0.00" departDelay="0.00" arrival="116.00" arrivalLane="260998164#0_0" arrivalPos="257.55" arrivalSpeed="27.58" duration="82.00" routeLength="1460.33" waitingTime="2.00" waitingCount="1" stopTime="0.00" timeLoss="33.83" rerouteNo="0" devices="tripinfo_35" vType="DEFAULT_VEHTYPE" speedFactor="1.17" vaporized=""/>
    <tripinfo id="3" depart="3.00" departLane="597602756#0_0" departPos="5.10" departSpeed="0.00" departDelay="0.00" arrival="119.00" arrivalLane="-318908683#1_0" arrivalPos="71.22" arrivalSpeed="11.91" duration="116.00" routeLength="1665.63" waitingTime="0.00" waitingCount="0" stopTime="0.00" timeLoss="17.24" rerouteNo="0" devices="tripinfo_3" vType="DEFAULT_VEHTYPE" speedFactor="0.94" vaporized=""/>
    <tripinfo id="43" depart="44.00" departLane="422685671#2_0" departPos="5.10" departSpeed="0.00" departDelay="0.00" arrival="122.00" arrivalLane="260998164#0_0" arrivalPos="257.55" arrivalSpeed="25.56" duration="78.00" routeLength="1329.43" waitingTime="10.00" waitingCount="1" stopTime="0.00" timeLoss="27.86" rerouteNo="0" devices="tripinfo_43" vType="DEFAULT_VEHTYPE" speedFactor="0.96" vaporized=""/>
    <tripinfo id="32" depart="33.00" departLane="318908683#0_0" departPos="5.10" departSpeed="0.00" departDelay="2.00" arrival="127.00" arrivalLane="-105681660#20_0" arrivalPos="806.12" arrivalSpeed="25.02" duration="94.00" routeLength="1436.85" waitingTime="8.00" waitingCount="1" stopTime="0.00" timeLoss="36.46" rerouteNo="0" devices="tripinfo_32" vType="DEFAULT_VEHTYPE" speedFactor="1.18" vaporized=""/>
    <tripinfo id="7" depart="7.00" departLane="597602753#0_0" departPos="5.10" departSpeed="0.00" departDelay="0.00" arrival="129.00" arrivalLane="-597602756#0_0" arrivalPos="325.99" arrivalSpeed="17.57" duration="122.00" routeLength="1646.04" waitingTime="13.00" waitingCount="1" stopTime="0.00" timeLoss="31.79" rerouteNo="0" devices="tripinfo_7" vType="DEFAULT_VEHTYPE" speedFactor="0.83" vaporized=""/>
    <tripinfo id="24" depart="28.00" departLane="105681660#12_0" departPos="5.10" departSpeed="0.00" departDelay="1.00" arrival="132.00" arrivalLane="918280984_0" arrivalPos="38.78" arrivalSpeed="12.88" duration="104.00" routeLength="1405.13" waitingTime="1.00" waitingCount="1" stopTime="0.00" timeLoss="21.14" rerouteNo="0" devices="tripinfo_24" vType="DEFAULT_VEHTYPE" speedFactor="0.97" vaporized=""/>
    <tripinfo id="41" depart="43.00" departLane="318908683#0_0" departPos="5.10" departSpeed="0.00" departDelay="0.00" arrival="132.00" arrivalLane="-597602756#0_0" arrivalPos="325.99" arrivalSpeed="19.18" duration="89.00" routeLength="1401.85" waitingTime="0.00" waitingCount="0" stopTime="0.00" timeLoss="15.27" rerouteNo="0" devices="tripinfo_41" vType="DEFAULT_VEHTYPE" speedFactor="0.90" vaporized=""/>
    <tripinfo id="48" depart="48.00" departLane="105681660#12_0" departPos="5.10" departSpeed="0.00" departDelay="0.00" arrival="137.00" arrivalLane="-597602753#1_0" arrivalPos="143.59" arrivalSpeed="21.16" duration="89.00" routeLength="1380.56" waitingTime="10.00" waitingCount="1" stopTime="0.00" timeLoss="25.29" rerouteNo="0" devices="tripinfo_48" vType="DEFAULT_VEHTYPE" speedFactor="1.00" vaporized=""/>
    <tripinfo id="19" depart="25.00" departLane="105681660#12_0" departPos="5.10" departSpeed="0.00" departDelay="0.00" arrival="140.00" arrivalLane="422688976#1_0" arrivalPos="294.40" arrivalSpeed="25.57" duration="115.00" routeLength="1630.66" waitingTime="2.00" waitingCount="1" stopTime="0.00" timeLoss="22.41" rerouteNo="0" devices="tripinfo_19" vType="DEFAULT_VEHTYPE" speedFactor="0.94" vaporized=""/>
    <tripinfo id="49" depart="51.00" departLane="105681660#12_0" departPos="5.10" departSpeed="0.00" departDelay="3.00" arrival="141.00" arrivalLane="-597602753#1_0" arrivalPos="143.59" arrivalSpeed="19.79" duration="90.00" routeLength="1380.56" waitingTime="5.00" waitingCount="1" stopTime="0.00" timeLoss="19.72" rerouteNo="0" devices="tripinfo_49" vType="DEFAULT_VEHTYPE" speedFactor="0.90" vaporized=""/>
    <tripinfo id="8" depart="7.00" departLane="918280985_0" departPos="5.10" departSpeed="0.00" departDelay="0.00" arrival="142.00" arrivalLane="-597602756#0_0" arrivalPos="325.99" arrivalSpeed="22.63" duration="135.00" routeLength="1890.39" waitingTime="25.00" waitingCount="1" stopTime="0.00" timeLoss="53.32" rerouteNo="0" devices="tripinfo_8" vType="DEFAULT_VEHTYPE" speedFactor="1.05" vaporized=""/>
    <tripinfo id="33" depart="31.00" departLane="918280985_0" departPos="5.10" departSpeed="0.00" departDelay="0.00" arrival="143.00" arrivalLane="-318908683#1_0" arrivalPos="71.22" arrivalSpeed="15.21" duration="112.00" routeLength="674.50" waitingTime="61.00" waitingCount="2" stopTime="0.00" timeLoss="86.17" rerouteNo="0" devices="tripinfo_33" vType="DEFAULT_VEHTYPE" speedFactor="1.15" vaporized=""/>
    <tripinfo id="16" depart="21.00" departLane="422688973_0" departPos="5.10" departSpeed="0.00" departDelay="0.00" arrival="146.00" arrivalLane="-318908683#1_0" arrivalPos="71.22" arrivalSpeed="13.00" duration="125.00" routeLength="684.23" waitingTime="75.00" waitingCount="2" stopTime="0.00" timeLoss="96.87" rerouteNo="0" devices="tripinfo_16" vType="DEFAULT_VEHTYPE" speedFactor="0.99" vaporized=""/>
    <tripinfo id="65" depart="63.00" departLane="105681660#12_0" departPos="5.10" departSpeed="0.00" departDelay="0.00" arrival="147.00" arrivalLane="-597602753#1_0" arrivalPos="143.59" arrivalSpeed="21.63" duration="84.00" routeLength="1380.56" waitingTime="0.00" waitingCount="0" stopTime="0.00" timeLoss="19.94" rerouteNo="0" devices="tripinfo_65" vType="DEFAULT_VEHTYPE" speedFactor="0.99" vaporized=""/>
    <tripinfo id="51" depart="49.00" departLane="422688973_0" departPos="5.10" departSpeed="0.00" departDelay="0.00" arrival="149.00" arrivalLane="-318908683#1_0" arrivalPos="71.22" arrivalSpeed="10.61" duration="100.00" routeLength="684.23" waitingTime="46.00" waitingCount="1" stopTime="0.00" timeLoss="67.29" rerouteNo="0" devices="tripinfo_51" vType="DEFAULT_VEHTYPE" speedFactor="0.85" vaporized=""/>
    <tripinfo id="6" depart="6.00" departLane="105681660#12_0" departPos="5.10" departSpeed="0.00" departDelay="0.00" arrival="151.00" arrivalLane="-318908683#1_0" arrivalPos="71.22" arrivalSpeed="14.00" duration="145.00" routeLength="1986.24" waitingTime="11.00" waitingCount="3" stopTime="0.00" timeLoss="44.22" rerouteNo="0" devices="tripinfo_6" vType="DEFAULT_VEHTYPE" speedFactor="1.03" vaporized=""/>
    <tripinfo id="79" depart="83.00" departLane="918280985_0" departPos="5.10" departSpeed="0.00" departDelay="2.00" arrival="153.00" arrivalLane="-318908683#1_0" arrivalPos="71.22" arrivalSpeed="13.18" duration="70.00" routeLength="674.50" waitingTime="13.00" waitingCount="2" stopTime="0.00" timeLoss="38.79" rerouteNo="0" devices="tripinfo_79" vType="DEFAULT_VEHTYPE" speedFactor="0.98" vaporized=""/>
    <tripinfo id="58" depart="59.00" departLane="597602753#0_0" departPos="5.10" departSpeed="0.00" departDelay="0.00" arrival="154.00" arrivalLane="-597602756#0_0" arrivalPos="325.99" arrivalSpeed="19.88" duration="95.00" routeLength="1646.04" waitingTime="0.00" waitingCount="0" stopTime="0.00" timeLoss="11.32" rerouteNo="0" devices="tripinfo_58" vType="DEFAULT_VEHTYPE" speedFactor="0.90" vaporized=""/>
    <tripinfo id="80" depart="101.00" departLane="918280985_0" departPos="5.10" departSpeed="0.00" departDelay="20.00" arrival="155.00" arrivalLane="15374898#0-AddedOffRampEdge_0" arrivalPos="100.00" arrivalSpeed="27.74" duration="54.00" routeLength="996.81" waitingTime="0.00" waitingCount="0" stopTime="0.00" timeLoss="14.88" rerouteNo="0" devices="tripinfo_80" vType="DEFAULT_VEHTYPE" speedFactor="1.01" vaporized=""/>
    <tripinfo id="81" depart="105.00" departLane="918280985_0" departPos="5.10" departSpeed="0.00" departDelay="23.00" arrival="157.00" arrivalLane="15374898#0-AddedOffRampEdge_0" arrivalPos="100.00" arrivalSpeed="29.61" duration="52.00" routeLength="996.81" waitingTime="0.00" waitingCount="0" stopTime="0.00" timeLoss="16.08" rerouteNo="0" devices="tripinfo_81" vType="DEFAULT_VEHTYPE" speedFactor="1.09" vaporized=""/>
    <tripinfo id="42" depart="46.00" departLane="318908683#0_0" departPos="5.10" departSpeed="0.00" departDelay="2.00" arrival="167.00" arrivalLane="422688976#1_1" arrivalPos="294.40" arrivalSpeed="28.29" duration="121.00" routeLength="940.85" waitingTime="70.00" waitingCount="1" stopTime="0.00" timeLoss="85.35" rerouteNo="0" devices="tripinfo_42" vType="DEFAULT_VEHTYPE" speedFactor="1.03" vaporized=""/>
    <tripinfo id="118" depart="126.00" departLane="918280985_0" departPos="5.10" departSpeed="0.00" departDelay="10.00" arrival="167.00" arrivalLane="-318908683#1_0" arrivalPos="71.22" arrivalSpeed="15.09" duration="41.00" routeLength="674.50" waitingTime="0.00" waitingCount="0" stopTime="0.00" timeLoss="15.70" rerouteNo="0" devices="tripinfo_118" vType="DEFAULT_VEHTYPE" speedFactor="1.18" vaporized=""/>
    <tripinfo id="5" depart="3.00" departLane="-260998164#3_0" departPos="5.10" departSpeed="0.00" departDelay="0.00" arrival="168.00" arrivalLane="422688976#1_0" arrivalPos="294.40" arrivalSpeed="29.54" duration="165.00" routeLength="1702.46" waitingTime="77.00" waitingCount="2" stopTime="0.00" timeLoss="107.27" rerouteNo="0" devices="tripinfo_5" vType="DEFAULT_VEHTYPE" speedFactor="1.08" vaporized=""/>
    <tripinfo id="22" depart="26.00" departLane="-260998164#3_0" departPos="5.10" departSpeed="0.00" departDelay="0.00" arrival="168.00" arrivalLane="422688976#1_2" arrivalPos="294.40" arrivalSpeed="28.24" duration="142.00" routeLength="1712.42" waitingTime="51.00" waitingCount="2" stopTime="0.00" timeLoss="80.23" rerouteNo="0" devices="tripinfo_22" vType="DEFAULT_VEHTYPE" speedFactor="1.02" vaporized=""/>
    <tripinfo id="44" depart="45.00" departLane="-260998164#3_0" departPos="5.10" departSpeed="0.00" departDelay="0.00" arrival="169.00" arrivalLane="422688976#1_1" arrivalPos="294.40" arrivalSpeed="28.86" duration="124.00" routeLength="1712.42" waitingTime="31.00" waitingCount="2" stopTime="0.00" timeLoss="66.47" rerouteNo="0" devices="tripinfo_44" vType="DEFAULT_VEHTYPE" speedFactor="1.09" vaporized=""/>
    <tripinfo id="53" depart="55.00" departLane="318908683#0_0" departPos="5.10" departSpeed="0.00" departDelay="0.00" arrival="169.00" arrivalLane="260998164#0_0" arrivalPos="257.55" arrivalSpeed="31.70" duration="114.00" routeLength="939.98" waitingTime="68.00" waitingCount="1" stopTime="0.00" timeLoss="81.45" rerouteNo="0" devices="tripinfo_53" vType="DEFAULT_VEHTYPE" speedFactor="1.17" vaporized=""/>
    <tripinfo id="21" depart="29.00" departLane="422685671#2_0" departPos="5.10" departSpeed="0.00" departDelay="3.00" arrival="170.00" arrivalLane="422688976#1_1" arrivalPos="294.40" arrivalSpeed="28.72" duration="141.00" routeLength="1317.05" waitingTime="60.00" waitingCount="3" stopTime="0.00" timeLoss="98.59" rerouteNo="0" devices="tripinfo_21" vType="DEFAULT_VEHTYPE" speedFactor="1.16" vaporized=""/>
    <tripinfo id="30" depart="32.00" departLane="422685671#2_0" departPos="5.10" departSpeed="0.00" departDelay="2.00" arrival="170.00" arrivalLane="422688976#1_0" arrivalPos="294.40" arrivalSpeed="28.99" duration="138.00" routeLength="1317.05" waitingTime="51.00" waitingCount="2" stopTime="0.00" timeLoss="93.80" rerouteNo="0" devices="tripinfo_30" vType="DEFAULT_VEHTYPE" speedFactor="1.13" vaporized=""/>
    <tripinfo id="50" depart="49.00" departLane="597602756#0_0" departPos="5.10" departSpeed="0.00" departDelay="0.00" arrival="171.00" arrivalLane="-105681660#20_0" arrivalPos="806.12" arrivalSpeed="19.21" duration="122.00" routeLength="1867.67" waitingTime="3.00" waitingCount="1" stopTime="0.00" timeLoss="23.68" rerouteNo="0" devices="tripinfo_50" vType="DEFAULT_VEHTYPE" speedFactor="0.88" vaporized=""/>
    <tripinfo id="59" depart="60.00" departLane="318908683#0_0" departPos="5.10" departSpeed="0.00" departDelay="0.00" arrival="176.00" arrivalLane="422688976#1_1" arrivalPos="294.40" arrivalSpeed="31.65" duration="116.00" routeLength="940.85" waitingTime="63.00" waitingCount="1" stopTime="0.00" timeLoss="83.37" rerouteNo="0" devices="tripinfo_59" vType="DEFAULT_VEHTYPE" speedFactor="1.14" vaporized=""/>
    <tripinfo id="29" depart="30.00" departLane="-260998164#3_0" departPos="5.10" departSpeed="0.00" departDelay="0.00" arrival="178.00" arrivalLane="918280984_0" arrivalPos="38.78" arrivalSpeed="12.70" duration="148.00" routeLength="1465.15" waitingTime="60.00" waitingCount="3" stopTime="0.00" timeLoss="87.69" rerouteNo="0" devices="tripinfo_29" vType="DEFAULT_VEHTYPE" speedFactor="0.95" vaporized=""/>
    <tripinfo id="52" depart="54.00" departLane="105681660#12_0" departPos="5.10" departSpeed="0.00" departDelay="1.00" arrival="178.00" arrivalLane="-597602756#0_0" arrivalPos="325.99" arrivalSpeed="18.11" duration="124.00" routeLength="1877.95" waitingTime="3.00" waitingCount="1" stopTime="0.00" timeLoss="22.71" rerouteNo="0" devices="tripinfo_52" vType="DEFAULT_VEHTYPE" speedFactor="0.85" vaporized=""/>
    <tripinfo id="117" depart="123.00" departLane="918280985_0" departPos="5.10" departSpeed="0.00" departDelay="8.00" arrival="180.00" arrivalLane="15374898#0-AddedOffRampEdge_0" arrivalPos="100.00" arrivalSpeed="24.53" duration="57.00" routeLength="996.81" waitingTime="0.00" waitingCount="0" stopTime="0.00" timeLoss="14.40" rerouteNo="0" devices="tripinfo_117" vType="DEFAULT_VEHTYPE" speedFactor="0.92" vaporized=""/>
    <tripinfo id="31" depart="33.00" departLane="-260998164#3_0" departPos="5.10" departSpeed="0.00" departDelay="3.00" arrival="181.00" arrivalLane="918280984_0" arrivalPos="38.78" arrivalSpeed="12.12" duration="148.00" routeLength="1465.15" waitingTime="56.00" waitingCount="3" stopTime="0.00" timeLoss="86.51" rerouteNo="0" devices="tripinfo_31" vType="DEFAULT_VEHTYPE" speedFactor="0.93" vaporized=""/>
    <tripinfo id="69" depart="69.00" departLane="422688973_0" departPos="5.10" departSpeed="0.00" departDelay="0.00" arrival="181.00" arrivalLane="-597602753#1_0" arrivalPos="143.59" arrivalSpeed="19.76" duration="112.00" routeLength="1114.81" waitingTime="13.00" waitingCount="2" stopTime="0.00" timeLoss="39.54" rerouteNo="0" devices="tripinfo_69" vType="DEFAULT_VEHTYPE" speedFactor="0.91" vaporized=""/>
    <tripinfo id="62" depart="66.00" departLane="318908683#0_0" departPos="5.10" departSpeed="0.00" departDelay="4.00" arrival="182.00" arrivalLane="918280984_0" arrivalPos="38.78" arrivalSpeed="14.87" duration="116.00" routeLength="693.58" waitingTime="63.00" waitingCount="2" stopTime="0.00" timeLoss="87.44" rerouteNo="0" devices="tripinfo_62" vType="DEFAULT_VEHTYPE" speedFactor="1.08" vaporized=""/>
    <tripinfo id="72" depart="76.00" departLane="318908683#0_0" departPos="5.10" departSpeed="0.00" departDelay="0.00" arrival="183.00" arrivalLane="260998164#0_0" arrivalPos="257.55" arrivalSpeed="27.23" duration="107.00" routeLength="939.98" waitingTime="55.00" waitingCount="1" stopTime="0.00" timeLoss="69.82" rerouteNo="0" devices="tripinfo_72" vType="DEFAULT_VEHTYPE" speedFactor="1.02" vaporized=""/>
    <tripinfo id="27" depart="29.00" departLane="597602753#0_0" departPos="5.10" departSpeed="0.00" departDelay="0.00" arrival="186.00" arrivalLane="-105681660#20_0" arrivalPos="806.12" arrivalSpeed="18.36" duration="157.00" routeLength="1856.78" waitingTime="15.00" waitingCount="1" stopTime="0.00" timeLoss="33.67" rerouteNo="0" devices="tripinfo_27" vType="DEFAULT_VEHTYPE" speedFactor="0.87" vaporized=""/>
    <tripinfo id="36" depart="35.00" departLane="422688973_0" departPos="5.10" departSpeed="0.00" departDelay="0.00" arrival="187.00" arrivalLane="-105681660#20_0" arrivalPos="806.12" arrivalSpeed="21.16" duration="152.00" routeLength="1352.23" waitingTime="44.00" waitingCount="2" stopTime="0.00" timeLoss="77.06" rerouteNo="0" devices="tripinfo_36" vType="DEFAULT_VEHTYPE" speedFactor="0.99" vaporized=""/>
    <tripinfo id="67" depart="67.00" departLane="918280985_0" departPos="5.10" departSpeed="0.00" departDelay="0.00" arrival="187.00" arrivalLane="-597602753#1_0" arrivalPos="143.59" arrivalSpeed="19.40" duration="120.00" routeLength="1072.66" waitingTime="21.00" waitingCount="1" stopTime="0.00" timeLoss="37.47" rerouteNo="0" devices="tripinfo_67" vType="DEFAULT_VEHTYPE" speedFactor="0.88" vaporized=""/>
    <tripinfo id="74" depart="79.00" departLane="318908683#0_0" departPos="5.10" departSpeed="0.00" departDelay="2.00" arrival="188.00" arrivalLane="260998164#0_0" arrivalPos="257.55" arrivalSpeed="26.05" duration="109.00" routeLength="939.98" waitingTime="54.00" waitingCount="1" stopTime="0.00" timeLoss="69.02" rerouteNo="0" devices="tripinfo_74" vType="DEFAULT_VEHTYPE" speedFactor="0.94" vaporized=""/>
    <tripinfo id="122" depart="148.00" departLane="318908683#0_0" departPos="5.10" departSpeed="0.00" departDelay="27.00" arrival="188.00" arrivalLane="918280984_0" arrivalPos="38.78" arrivalSpeed="12.57" duration="40.00" routeLength="693.58" waitingTime="0.00" waitingCount="0" stopTime="0.00" timeLoss="7.15" rerouteNo="0" devices="tripinfo_122" vType="DEFAULT_VEHTYPE" speedFactor="0.94" vaporized=""/>
    <tripinfo id="39" depart="37.00" departLane="422688973_0" departPos="5.10" departSpeed="0.00" departDelay="0.00" arrival="189.00" arrivalLane="-105681660#20_0" arrivalPos="806.12" arrivalSpeed="23.79" duration="152.00" routeLength="1352.23" waitingTime="42.00" waitingCount="2" stopTime="0.00" timeLoss="88.16" rerouteNo="0" devices="tripinfo_39" vType="DEFAULT_VEHTYPE" speedFactor="1.18" vaporized=""/>
    <tripinfo id="95" depart="95.00" departLane="-260998164#3_0" departPos="5.10" departSpeed="0.00" departDelay="1.00" arrival="190.00" arrivalLane="-597602756#0_0" arrivalPos="325.99" arrivalSpeed="19.24" duration="95.00" routeLength="1231.40" waitingTime="0.00" waitingCount="0" stopTime="0.00" timeLoss="17.18" rerouteNo="0" devices="tripinfo_95" vType="DEFAULT_VEHTYPE" speedFactor="0.92" vaporized=""/>
    <tripinfo id="133" depart="154.00" departLane="318908683#0_0" departPos="5.10" departSpeed="0.00" departDelay="22.00" arrival="190.00" arrivalLane="918280984_0" arrivalPos="38.78" arrivalSpeed="14.60" duration="36.00" routeLength="693.58" waitingTime="0.00" waitingCount="0" stopTime="0.00" timeLoss="7.30" rerouteNo="0" devices="tripinfo_133" vType="DEFAULT_VEHTYPE" speedFactor="1.07" vaporized=""/>
    <tripinfo id="47" depart="51.00" departLane="422685671#2_0" departPos="5.10" departSpeed="0.00" departDelay="4.00" arrival="192.00" arrivalLane="-597602756#0_0" arrivalPos="325.99" arrivalSpeed="23.90" duration="141.00" routeLength="1778.05" waitingTime="32.00" waitingCount="1" stopTime="0.00" timeLoss="67.50" rerouteNo="0" devices="tripinfo_47" vType="DEFAULT_VEHTYPE" speedFactor="1.09" vaporized=""/>
    <tripinfo id="14" depart="20.00" departLane="422685671#2_0" departPos="5.10" departSpeed="0.00" departDelay="0.00" arrival="195.00" arrivalLane="-105681660#20_0" arrivalPos="806.12" arrivalSpeed="22.31" duration="175.00" routeLength="1813.05" waitingTime="66.00" waitingCount="2" stopTime="0.00" timeLoss="98.78" rerouteNo="0" devices="tripinfo_14" vType="DEFAULT_VEHTYPE" speedFactor="1.05" vaporized=""/>
    <tripinfo id="46" depart="47.00" departLane="422685671#2_0" departPos="5.10" departSpeed="0.00" departDelay="1.00" arrival="195.00" arrivalLane="-597602753#1_0" arrivalPos="143.59" arrivalSpeed="22.87" duration="148.00" routeLength="1584.34" waitingTime="39.00" waitingCount="2" stopTime="0.00" timeLoss="81.17" rerouteNo="0" devices="tripinfo_46" vType="DEFAULT_VEHTYPE" speedFactor="1.04" vaporized=""/>
    <tripinfo id="15" depart="23.00" departLane="422685671#2_0" departPos="5.10" departSpeed="0.00" departDelay="3.00" arrival="197.00" arrivalLane="-105681660#20_0" arrivalPos="806.12" arrivalSpeed="24.02" duration="174.00" routeLength="1813.05" waitingTime="64.00" waitingCount="2" stopTime="0.00" timeLoss="101.46" rerouteNo="0" devices="tripinfo_15" vType="DEFAULT_VEHTYPE" speedFactor="1.12" vaporized=""/>
    <tripinfo id="57" depart="58.00" departLane="422685671#2_0" departPos="5.10" departSpeed="0.00" departDelay="0.00" arrival="197.00" arrivalLane="-597602753#1_0" arrivalPos="143.59" arrivalSpeed="21.48" duration="139.00" routeLength="1584.34" waitingTime="26.00" waitingCount="1" stopTime="0.00" timeLoss="69.83" rerouteNo="0" devices="tripinfo_57" vType="DEFAULT_VEHTYPE" speedFactor="1.00" vaporized=""/>
    <tripinfo id="64" depart="63.00" departLane="422685671#2_0" departPos="5.10" departSpeed="0.00" departDelay="0.00" arrival="199.00" arrivalLane="-597602753#1_0" arrivalPos="143.59" arrivalSpeed="22.51" duration="136.00" routeLength="1584.34" waitingTime="23.00" waitingCount="1" stopTime="0.00" timeLoss="67.07" rerouteNo="0" devices="tripinfo_64" vType="DEFAULT_VEHTYPE" speedFactor="1.02" vaporized=""/>
    <tripinfo id="56" depart="58.00" departLane="105681660#12_0" departPos="5.10" departSpeed="0.00" departDelay="0.00" arrival="200.00" arrivalLane="918280984_0" arrivalPos="38.78" arrivalSpeed="13.26" duration="142.00" routeLength="1405.13" waitingTime="30.00" waitingCount="2" stopTime="0.00" timeLoss="61.05" rerouteNo="0" devices="tripinfo_56" vType="DEFAULT_VEHTYPE" speedFactor="1.00" vaporized=""/>
    <tripinfo id="87" depart="85.00" departLane="422685671#2_0" departPos="5.10" departSpeed="0.00" departDelay="0.00" arrival="202.00" arrivalLane="-597602756#0_0" arrivalPos="325.99" arrivalSpeed="21.57" duration="117.00" routeLength="1778.05" waitingTime="4.00" waitingCount="1" stopTime="0.00" timeLoss="36.74" rerouteNo="0" devices="tripinfo_87" vType="DEFAULT_VEHTYPE" speedFactor="0.98" vaporized=""/>
    <tripinfo id="93" depart="92.00" departLane="422685671#2_0" departPos="5.10" departSpeed="0.00" departDelay="0.00" arrival="204.00" arrivalLane="-597602753#1_0" arrivalPos="143.59" arrivalSpeed="19.07" duration="112.00" routeLength="1584.34" waitingTime="0.00" waitingCount="0" stopTime="0.00" timeLoss="34.55" rerouteNo="0" devices="tripinfo_93" vType="DEFAULT_VEHTYPE" speedFactor="0.89" vaporized=""/>
    <tripinfo id="96" depart="96.00" departLane="597602756#0_0" departPos="5.10" departSpeed="0.00" departDelay="0.00" arrival="205.00" arrivalLane="-597602753#1_0" arrivalPos="143.59" arrivalSpeed="20.75" duration="109.00" routeLength="1638.96" waitingTime="0.00" waitingCount="0" stopTime="0.00" timeLoss="40.55" rerouteNo="0" devices="tripinfo_96" vType="DEFAULT_VEHTYPE" speedFactor="1.09" vaporized=""/>
    <tripinfo id="17" depart="26.00" departLane="422685671#2_0" departPos="5.10" departSpeed="0.00" departDelay="3.00" arrival="206.00" arrivalLane="-105681660#20_0" arrivalPos="806.12" arrivalSpeed="19.72" duration="180.00" routeLength="1813.05" waitingTime="57.00" waitingCount="2" stopTime="0.00" timeLoss="92.16" rerouteNo="0" devices="tripinfo_17" vType="DEFAULT_VEHTYPE" speedFactor="0.93" vaporized=""/>
    <tripinfo id="73" depart="76.00" departLane="597602753#0_0" departPos="5.10" departSpeed="0.00" departDelay="0.00" arrival="206.00" arrivalLane="422688976#1_0" arrivalPos="294.40" arrivalSpeed="26.31" duration="130.00" routeLength="1286.53" waitingTime="30.00" waitingCount="1" stopTime="0.00" timeLoss="49.96" rerouteNo="0" devices="tripinfo_73" vType="DEFAULT_VEHTYPE" speedFactor="0.97" vaporized=""/>