<?xml version="1.0" encoding="UTF-8"?>

<!-- generated on 2023-04-29 15:56:29 by Eclipse SUMO sumo Version 1.16.0
<configuration xmlns:xsi="http://www.w3.org/2001/XMLSchema-instance" xsi:noNamespaceSchemaLocation="http://sumo.dlr.de/xsd/sumoConfiguration.xsd">

    <input>
        <net-file value="022/../configurations/maps/4corners_neighborhoods.net.xml"/>
        <route-files value="022/Trips_File_022.rou.xml"/>
        <additional-files value="022/../edgedata.add.xml"/>
    </input>

    <output>
        <output-prefix value="022/"/>
        <summary-output value="022/../summary_022.xml"/>
        <tripinfo-output value="022/../tripinfo_022.xml"/>
    </output>

    <time>
        <begin value="0"/>
    </time>

    <processing>
        <route-steps value="200"/>
        <no-internal-links value="False"/>
        <time-to-teleport value="300"/>
        <time-to-teleport.highways value="0"/>
        <eager-insert value="False"/>
    </processing>

    <report>
        <verbose value="true"/>
        <no-warnings value="False"/>
        <log value="022/../iteration_022.sumo.log"/>
        <no-step-log value="true"/>
    </report>

    <mesoscopic>
        <mesosim value="true"/>
        <meso-recheck value="0"/>
    </mesoscopic>

    <random_number>
        <random value="False"/>
    </random_number>

</configuration>
-->

<tripinfos xmlns:xsi="http://www.w3.org/2001/XMLSchema-instance" xsi:noNamespaceSchemaLocation="http://sumo.dlr.de/xsd/tripinfo_file.xsd">
    <tripinfo id="2" depart="0.00" departLane="" departPos="0.00" departSpeed="29.44" departDelay="0.00" arrival="46.00" arrivalLane="" arrivalPos="38.78" arrivalSpeed="14.72" duration="46.00" routeLength="1301.36" waitingTime="0.00" waitingCount="0" stopTime="0.00" timeLoss="0.00" rerouteNo="0" devices="tripinfo_2" vType="DEFAULT_VEHTYPE" speedFactor="1.06" vaporized=""/>
    <tripinfo id="5" depart="7.00" departLane="" departPos="0.00" departSpeed="30.08" departDelay="0.00" arrival="48.00" arrivalLane="" arrivalPos="100.00" arrivalSpeed="30.08" duration="41.00" routeLength="1209.17" waitingTime="0.00" waitingCount="0" stopTime="0.00" timeLoss="0.00" rerouteNo="0" devices="tripinfo_5" vType="DEFAULT_VEHTYPE" speedFactor="1.08" vaporized=""/>
    <tripinfo id="14" depart="16.00" departLane="" departPos="0.00" departSpeed="12.60" departDelay="0.00" arrival="49.00" arrivalLane="" arrivalPos="294.40" arrivalSpeed="29.09" duration="33.00" routeLength="850.33" waitingTime="0.00" waitingCount="0" stopTime="0.00" timeLoss="0.75" rerouteNo="0" devices="tripinfo_14" vType="DEFAULT_VEHTYPE" speedFactor="1.05" vaporized=""/>
    <tripinfo id="23" depart="23.00" departLane="" departPos="0.00" departSpeed="14.03" departDelay="0.00" arrival="50.00" arrivalLane="" arrivalPos="71.22" arrivalSpeed="14.03" duration="27.00" routeLength="617.84" waitingTime="0.00" waitingCount="0" stopTime="0.00" timeLoss="0.00" rerouteNo="0" devices="tripinfo_23" vType="DEFAULT_VEHTYPE" speedFactor="1.01" vaporized=""/>
    <tripinfo id="7" depart="9.00" departLane="" departPos="0.00" departSpeed="11.54" departDelay="0.00" arrival="53.00" arrivalLane="" arrivalPos="100.00" arrivalSpeed="23.08" duration="44.00" routeLength="958.05" waitingTime="0.00" waitingCount="0" stopTime="0.00" timeLoss="0.00" rerouteNo="0" devices="tripinfo_7" vType="DEFAULT_VEHTYPE" speedFactor="0.83" vaporized=""/>
    <tripinfo id="3" depart="1.00" departLane="" departPos="0.00" departSpeed="13.03" departDelay="0.00" arrival="55.00" arrivalLane="" arrivalPos="143.59" arrivalSpeed="20.85" duration="54.00" routeLength="1084.30" waitingTime="0.00" waitingCount="0" stopTime="0.00" timeLoss="0.00" rerouteNo="0" devices="tripinfo_3" vType="DEFAULT_VEHTYPE" speedFactor="0.94" vaporized=""/>
    <tripinfo id="28" depart="33.00" departLane="" departPos="0.00" departSpeed="25.47" departDelay="0.00" arrival="60.00" arrivalLane="" arrivalPos="71.22" arrivalSpeed="12.74" duration="27.00" routeLength="612.32" waitingTime="0.00" waitingCount="0" stopTime="0.00" timeLoss="0.00" rerouteNo="0" devices="tripinfo_28" vType="DEFAULT_VEHTYPE" speedFactor="0.92" vaporized=""/>
    <tripinfo id="29" depart="35.00" departLane="" departPos="0.00" departSpeed="13.18" departDelay="0.00" arrival="63.00" arrivalLane="" arrivalPos="71.22" arrivalSpeed="13.18" duration="28.00" routeLength="617.84" waitingTime="0.00" waitingCount="0" stopTime="0.00" timeLoss="0.00" rerouteNo="0" devices="tripinfo_29" vType="DEFAULT_VEHTYPE" speedFactor="0.95" vaporized=""/>
    <tripinfo id="30" depart="35.00" departLane="" departPos="0.00" departSpeed="31.44" departDelay="0.00" arrival="68.00" arrivalLane="" arrivalPos="38.78" arrivalSpeed="15.72" duration="33.00" routeLength="969.47" waitingTime="0.00" waitingCount="0" stopTime="0.00" timeLoss="0.00" rerouteNo="0" devices="tripinfo_30" vType="DEFAULT_VEHTYPE" speedFactor="1.13" vaporized=""/>
    <tripinfo id="37" depart="43.00" departLane="" departPos="0.00" departSpeed="14.16" departDelay="0.00" arrival="69.00" arrivalLane="" arrivalPos="71.22" arrivalSpeed="14.16" duration="26.00" routeLength="617.84" waitingTime="0.00" waitingCount="0" stopTime="0.00" timeLoss="0.00" rerouteNo="0" devices="tripinfo_37" vType="DEFAULT_VEHTYPE" speedFactor="1.02" vaporized=""/>
    <tripinfo id="34" depart="39.00" departLane="" departPos="0.00" departSpeed="27.92" departDelay="0.00" arrival="72.00" arrivalLane="" arrivalPos="71.22" arrivalSpeed="13.96" duration="33.00" routeLength="848.93" waitingTime="0.00" waitingCount="0" stopTime="0.00" timeLoss="0.00" rerouteNo="0" devices="tripinfo_34" vType="DEFAULT_VEHTYPE" speedFactor="1.01" vaporized=""/>
    <tripinfo id="10" depart="13.00" departLane="" departPos="0.00" departSpeed="26.05" departDelay="0.00" arrival="74.00" arrivalLane="" arrivalPos="143.59" arrivalSpeed="20.84" duration="61.00" routeLength="1010.43" waitingTime="0.00" waitingCount="0" stopTime="0.00" timeLoss="0.00" rerouteNo="0" devices="tripinfo_10" vType="DEFAULT_VEHTYPE" speedFactor="0.94" vaporized=""/>
    <tripinfo id="12" depart="15.00" departLane="" departPos="0.00" departSpeed="15.15" departDelay="0.00" arrival="76.00" arrivalLane="" arrivalPos="143.59" arrivalSpeed="20.84" duration="61.00" routeLength="1015.95" waitingTime="0.00" waitingCount="0" stopTime="0.00" timeLoss="6.27" rerouteNo="0" devices="tripinfo_12" vType="DEFAULT_VEHTYPE" speedFactor="1.09" vaporized=""/>
    <tripinfo id="15" depart="17.00" departLane="" departPos="0.00" departSpeed="11.27" departDelay="0.00" arrival="78.00" arrivalLane="" arrivalPos="806.12" arrivalSpeed="24.95" duration="61.00" routeLength="1363.89" waitingTime="0.00" waitingCount="0" stopTime="0.00" timeLoss="4.15" rerouteNo="0" devices="tripinfo_15" vType="DEFAULT_VEHTYPE" speedFactor="1.12" vaporized=""/>
    <tripinfo id="11" depart="14.00" departLane="" departPos="0.00" departSpeed="11.90" departDelay="0.00" arrival="84.00" arrivalLane="" arrivalPos="325.99" arrivalSpeed="19.04" duration="70.00" routeLength="1300.17" waitingTime="0.00" waitingCount="0" stopTime="0.00" timeLoss="0.00" rerouteNo="0" devices="tripinfo_11" vType="DEFAULT_VEHTYPE" speedFactor="0.86" vaporized=""/>
    <tripinfo id="18" depart="19.00" departLane="" departPos="0.00" departSpeed="24.40" departDelay="0.00" arrival="84.00" arrivalLane="" arrivalPos="143.59" arrivalSpeed="19.52" duration="65.00" routeLength="1010.43" waitingTime="0.00" waitingCount="0" stopTime="0.00" timeLoss="0.00" rerouteNo="0" devices="tripinfo_18" vType="DEFAULT_VEHTYPE" speedFactor="0.88" vaporized=""/>
    <tripinfo id="35" depart="41.00" departLane="" departPos="0.00" departSpeed="32.55" departDelay="0.00" arrival="85.00" arrivalLane="" arrivalPos="38.78" arrivalSpeed="16.27" duration="44.00" routeLength="1301.36" waitingTime="0.16" waitingCount="0" stopTime="0.00" timeLoss="2.39" rerouteNo="0" devices="tripinfo_35" vType="DEFAULT_VEHTYPE" speedFactor="1.17" vaporized=""/>
    <tripinfo id="8" depart="9.00" departLane="" departPos="0.00" departSpeed="29.05" departDelay="0.00" arrival="86.00" arrivalLane="" arrivalPos="325.99" arrivalSpeed="19.04" duration="77.00" routeLength="1770.21" waitingTime="0.61" waitingCount="0" stopTime="0.00" timeLoss="5.37" rerouteNo="0" devices="tripinfo_8" vType="DEFAULT_VEHTYPE" speedFactor="1.05" vaporized=""/>
    <tripinfo id="22" depart="22.00" departLane="" departPos="0.00" departSpeed="28.28" departDelay="0.00" arrival="86.00" arrivalLane="" arrivalPos="143.59" arrivalSpeed="19.52" duration="64.00" routeLength="1010.43" waitingTime="0.00" waitingCount="0" stopTime="0.00" timeLoss="7.38" rerouteNo="0" devices="tripinfo_22" vType="DEFAULT_VEHTYPE" speedFactor="1.02" vaporized=""/>
    <tripinfo id="13" depart="16.00" departLane="" departPos="0.00" departSpeed="28.51" departDelay="0.00" arrival="87.00" arrivalLane="" arrivalPos="325.99" arrivalSpeed="19.04" duration="71.00" routeLength="1674.93" waitingTime="0.00" waitingCount="0" stopTime="0.00" timeLoss="1.82" rerouteNo="0" devices="tripinfo_13" vType="DEFAULT_VEHTYPE" speedFactor="1.03" vaporized=""/>
    <tripinfo id="17" depart="18.00" departLane="" departPos="0.00" departSpeed="10.18" departDelay="0.00" arrival="88.00" arrivalLane="" arrivalPos="806.12" arrivalSpeed="20.59" duration="70.00" routeLength="1363.89" waitingTime="0.00" waitingCount="0" stopTime="0.00" timeLoss="1.46" rerouteNo="0" devices="tripinfo_17" vType="DEFAULT_VEHTYPE" speedFactor="0.93" vaporized=""/>
    <tripinfo id="6" depart="9.00" departLane="" departPos="0.00" departSpeed="22.89" departDelay="0.00" arrival="89.00" arrivalLane="" arrivalPos="325.99" arrivalSpeed="21.95" duration="80.00" routeLength="1811.14" waitingTime="0.00" waitingCount="0" stopTime="0.00" timeLoss="0.20" rerouteNo="0" devices="tripinfo_6" vType="DEFAULT_VEHTYPE" speedFactor="1.03" vaporized=""/>
    <tripinfo id="21" depart="21.00" departLane="" departPos="0.00" departSpeed="12.59" departDelay="0.00" arrival="89.00" arrivalLane="" arrivalPos="806.12" arrivalSpeed="20.59" duration="68.00" routeLength="1363.89" waitingTime="0.46" waitingCount="0" stopTime="0.00" timeLoss="13.46" rerouteNo="0" devices="tripinfo_21" vType="DEFAULT_VEHTYPE" speedFactor="1.16" vaporized=""/>
    <tripinfo id="4" depart="6.00" departLane="" departPos="0.00" departSpeed="22.45" departDelay="0.00" arrival="91.00" arrivalLane="" arrivalPos="806.12" arrivalSpeed="20.59" duration="85.00" routeLength="1811.89" waitingTime="0.00" waitingCount="0" stopTime="0.00" timeLoss="3.42" rerouteNo="0" devices="tripinfo_4" vType="DEFAULT_VEHTYPE" speedFactor="1.01" vaporized=""/>
    <tripinfo id="47" depart="49.00" departLane="" departPos="0.00" departSpeed="30.22" departDelay="0.00" arrival="91.00" arrivalLane="" arrivalPos="294.40" arrivalSpeed="30.22" duration="42.00" routeLength="1225.09" waitingTime="0.52" waitingCount="0" stopTime="0.00" timeLoss="0.85" rerouteNo="0" devices="tripinfo_47" vType="DEFAULT_VEHTYPE" speedFactor="1.09" vaporized=""/>
    <tripinfo id="63" depart="67.00" departLane="" departPos="0.00" departSpeed="31.09" departDelay="0.00" arrival="92.00" arrivalLane="" arrivalPos="71.22" arrivalSpeed="15.55" duration="25.00" routeLength="612.32" waitingTime="0.00" waitingCount="0" stopTime="0.00" timeLoss="2.66" rerouteNo="0" devices="tripinfo_63" vType="DEFAULT_VEHTYPE" speedFactor="1.12" vaporized=""/>
    <tripinfo id="19" depart="20.00" departLane="" departPos="0.00" departSpeed="20.92" departDelay="0.00" arrival="94.00" arrivalLane="" arrivalPos="143.59" arrivalSpeed="20.92" duration="74.00" routeLength="1532.30" waitingTime="0.00" waitingCount="0" stopTime="0.00" timeLoss="0.00" rerouteNo="0" devices="tripinfo_19" vType="DEFAULT_VEHTYPE" speedFactor="0.94" vaporized=""/>
    <tripinfo id="42" depart="47.00" departLane="" departPos="0.00" departSpeed="28.62" departDelay="0.00" arrival="94.00" arrivalLane="" arrivalPos="257.55" arrivalSpeed="28.62" duration="47.00" routeLength="1324.09" waitingTime="0.00" waitingCount="0" stopTime="0.00" timeLoss="0.00" rerouteNo="0" devices="tripinfo_42" vType="DEFAULT_VEHTYPE" speedFactor="1.03" vaporized=""/>
    <tripinfo id="46" depart="49.00" departLane="" departPos="0.00" departSpeed="28.98" departDelay="0.00" arrival="95.00" arrivalLane="" arrivalPos="257.55" arrivalSpeed="28.98" duration="46.00" routeLength="1324.09" waitingTime="0.00" waitingCount="0" stopTime="0.00" timeLoss="0.00" rerouteNo="0" devices="tripinfo_46" vType="DEFAULT_VEHTYPE" speedFactor="1.04" vaporized=""/>
    <tripinfo id="59" depart="64.00" departLane="" departPos="0.00" departSpeed="31.74" departDelay="0.00" arrival="96.00" arrivalLane="" arrivalPos="38.78" arrivalSpeed="15.87" duration="32.00" routeLength="969.47" waitingTime="0.00" waitingCount="0" stopTime="0.00" timeLoss="0.00" rerouteNo="0" devices="tripinfo_59" vType="DEFAULT_VEHTYPE" speedFactor="1.14" vaporized=""/>
    <tripinfo id="9" depart="12.00" departLane="" departPos="0.00" departSpeed="19.69" departDelay="0.00" arrival="101.00" arrivalLane="" arrivalPos="294.40" arrivalSpeed="24.61" duration="89.00" routeLength="1887.77" waitingTime="0.00" waitingCount="0" stopTime="0.00" timeLoss="0.00" rerouteNo="0" devices="tripinfo_9" vType="DEFAULT_VEHTYPE" speedFactor="0.89" vaporized=""/>
    <tripinfo id="24" depart="24.00" departLane="" departPos="0.00" departSpeed="21.66" departDelay="0.00" arrival="101.00" arrivalLane="" arrivalPos="100.00" arrivalSpeed="27.09" duration="77.00" routeLength="1606.44" waitingTime="0.00" waitingCount="0" stopTime="0.00" timeLoss="0.00" rerouteNo="0" devices="tripinfo_24" vType="DEFAULT_VEHTYPE" speedFactor="0.97" vaporized=""/>
    <tripinfo id="16" depart="17.00" departLane="" departPos="0.00" departSpeed="22.02" departDelay="0.00" arrival="102.00" arrivalLane="" arrivalPos="294.40" arrivalSpeed="24.61" duration="85.00" routeLength="1887.77" waitingTime="0.39" waitingCount="0" stopTime="0.00" timeLoss="4.86" rerouteNo="0" devices="tripinfo_16" vType="DEFAULT_VEHTYPE" speedFactor="0.99" vaporized=""/>
    <tripinfo id="27" depart="30.00" departLane="" departPos="0.00" departSpeed="12.12" departDelay="0.00" arrival="102.00" arrivalLane="" arrivalPos="806.12" arrivalSpeed="19.39" duration="72.00" routeLength="1363.89" waitingTime="0.00" waitingCount="0" stopTime="0.00" timeLoss="0.00" rerouteNo="0" devices="tripinfo_27" vType="DEFAULT_VEHTYPE" speedFactor="0.87" vaporized=""/>
    <tripinfo id="33" depart="38.00" departLane="" departPos="0.00" departSpeed="32.07" departDelay="0.00" arrival="104.00" arrivalLane="" arrivalPos="806.12" arrivalSpeed="19.39" duration="66.00" routeLength="1290.02" waitingTime="0.00" waitingCount="0" stopTime="0.00" timeLoss="5.09" rerouteNo="0" devices="tripinfo_33" vType="DEFAULT_VEHTYPE" speedFactor="1.15" vaporized=""/>
    <tripinfo id="49" depart="50.00" departLane="" departPos="0.00" departSpeed="25.01" departDelay="0.00" arrival="104.00" arrivalLane="" arrivalPos="38.78" arrivalSpeed="12.51" duration="54.00" routeLength="1301.36" waitingTime="0.00" waitingCount="0" stopTime="0.00" timeLoss="0.00" rerouteNo="0" devices="tripinfo_49" vType="DEFAULT_VEHTYPE" speedFactor="0.90" vaporized=""/>
    <tripinfo id="44" depart="49.00" departLane="" departPos="0.00" departSpeed="15.17" departDelay="0.00" arrival="105.00" arrivalLane="" arrivalPos="325.99" arrivalSpeed="24.26" duration="56.00" routeLength="1300.17" waitingTime="0.00" waitingCount="0" stopTime="0.00" timeLoss="1.02" rerouteNo="0" devices="tripinfo_44" vType="DEFAULT_VEHTYPE" speedFactor="1.09" vaporized=""/>
    <tripinfo id="38" depart="44.00" departLane="" departPos="0.00" departSpeed="21.62" departDelay="0.00" arrival="106.00" arrivalLane="" arrivalPos="806.12" arrivalSpeed="21.62" duration="62.00" routeLength="1333.25" waitingTime="0.00" waitingCount="0" stopTime="0.00" timeLoss="0.00" rerouteNo="0" devices="tripinfo_38" vType="DEFAULT_VEHTYPE" speedFactor="0.97" vaporized=""/>
    <tripinfo id="80" depart="79.00" departLane="" departPos="0.00" departSpeed="13.99" departDelay="0.00" arrival="106.00" arrivalLane="" arrivalPos="71.22" arrivalSpeed="13.99" duration="27.00" routeLength="617.84" waitingTime="0.00" waitingCount="0" stopTime="0.00" timeLoss="0.00" rerouteNo="0" devices="tripinfo_80" vType="DEFAULT_VEHTYPE" speedFactor="1.01" vaporized=""/>
    <tripinfo id="32" depart="37.00" departLane="" departPos="0.00" departSpeed="14.54" departDelay="0.00" arrival="107.00" arrivalLane="" arrivalPos="325.99" arrivalSpeed="24.26" duration="70.00" routeLength="1775.73" waitingTime="0.00" waitingCount="0" stopTime="0.00" timeLoss="4.75" rerouteNo="0" devices="tripinfo_32" vType="DEFAULT_VEHTYPE" speedFactor="1.18" vaporized=""/>
    <tripinfo id="57" depart="63.00" departLane="" departPos="0.00" departSpeed="27.67" departDelay="0.00" arrival="107.00" arrivalLane="" arrivalPos="100.00" arrivalSpeed="27.67" duration="44.00" routeLength="1209.17" waitingTime="0.00" waitingCount="0" stopTime="0.00" timeLoss="0.00" rerouteNo="0" devices="tripinfo_57" vType="DEFAULT_VEHTYPE" speedFactor="1.00" vaporized=""/>
    <tripinfo id="45" depart="49.00" departLane="" departPos="0.00" departSpeed="23.06" departDelay="0.00" arrival="108.00" arrivalLane="" arrivalPos="806.12" arrivalSpeed="21.62" duration="59.00" routeLength="1333.25" waitingTime="0.00" waitingCount="0" stopTime="0.00" timeLoss="0.30" rerouteNo="0" devices="tripinfo_45" vType="DEFAULT_VEHTYPE" speedFactor="1.04" vaporized=""/>
    <tripinfo id="39" depart="44.00" departLane="" departPos="0.00" departSpeed="32.77" departDelay="0.00" arrival="109.00" arrivalLane="" arrivalPos="806.12" arrivalSpeed="21.62" duration="65.00" routeLength="1290.02" waitingTime="1.05" waitingCount="0" stopTime="0.00" timeLoss="5.56" rerouteNo="0" devices="tripinfo_39" vType="DEFAULT_VEHTYPE" speedFactor="1.18" vaporized=""/>
    <tripinfo id="87" depart="83.00" departLane="" departPos="0.00" departSpeed="27.10" departDelay="0.00" arrival="109.00" arrivalLane="" arrivalPos="71.22" arrivalSpeed="13.56" duration="26.00" routeLength="612.32" waitingTime="0.00" waitingCount="0" stopTime="0.00" timeLoss="0.00" rerouteNo="0" devices="tripinfo_87" vType="DEFAULT_VEHTYPE" speedFactor="0.98" vaporized=""/>
    <tripinfo id="76" depart="76.00" departLane="" departPos="0.00" departSpeed="26.53" departDelay="0.00" arrival="111.00" arrivalLane="" arrivalPos="71.22" arrivalSpeed="13.27" duration="35.00" routeLength="848.93" waitingTime="0.00" waitingCount="0" stopTime="0.00" timeLoss="0.00" rerouteNo="0" devices="tripinfo_76" vType="DEFAULT_VEHTYPE" speedFactor="0.96" vaporized=""/>
    <tripinfo id="81" depart="80.00" departLane="" departPos="0.00" departSpeed="30.19" departDelay="0.00" arrival="112.00" arrivalLane="" arrivalPos="100.00" arrivalSpeed="30.19" duration="32.00" routeLength="952.53" waitingTime="0.00" waitingCount="0" stopTime="0.00" timeLoss="0.00" rerouteNo="0" devices="tripinfo_81" vType="DEFAULT_VEHTYPE" speedFactor="1.09" vaporized=""/>
    <tripinfo id="26" depart="29.00" departLane="" departPos="0.00" departSpeed="18.35" departDelay="0.00" arrival="115.00" arrivalLane="" arrivalPos="38.78" arrivalSpeed="11.47" duration="86.00" routeLength="1632.15" waitingTime="0.00" waitingCount="0" stopTime="0.00" timeLoss="0.00" rerouteNo="0" devices="tripinfo_26" vType="DEFAULT_VEHTYPE" speedFactor="0.83" vaporized=""/>
    <tripinfo id="36" depart="42.00" departLane="" departPos="0.00" departSpeed="27.63" departDelay="0.00" arrival="117.00" arrivalLane="" arrivalPos="806.12" arrivalSpeed="22.10" duration="75.00" routeLength="1738.65" waitingTime="0.81" waitingCount="0" stopTime="0.00" timeLoss="0.81" rerouteNo="0" devices="tripinfo_36" vType="DEFAULT_VEHTYPE" speedFactor="0.99" vaporized=""/>
    <tripinfo id="77" depart="77.00" departLane="" departPos="0.00" departSpeed="27.36" departDelay="0.00" arrival="117.00" arrivalLane="" arrivalPos="38.78" arrivalSpeed="11.47" duration="40.00" routeLength="969.47" waitingTime="1.20" waitingCount="0" stopTime="0.00" timeLoss="2.38" rerouteNo="0" devices="tripinfo_77" vType="DEFAULT_VEHTYPE" speedFactor="0.98" vaporized=""/>
    <tripinfo id="58" depart="64.00" departLane="" departPos="0.00" departSpeed="24.97" departDelay="0.00" arrival="118.00" arrivalLane="" arrivalPos="257.55" arrivalSpeed="24.97" duration="54.00" routeLength="1324.09" waitingTime="0.00" waitingCount="0" stopTime="0.00" timeLoss="0.00" rerouteNo="0" devices="tripinfo_58" vType="DEFAULT_VEHTYPE" speedFactor="0.90" vaporized=""/>
    <tripinfo id="70" depart="71.00" departLane="" departPos="0.00" departSpeed="28.89" departDelay="0.00" arrival="118.00" arrivalLane="" arrivalPos="38.78" arrivalSpeed="13.38" duration="47.00" routeLength="1301.36" waitingTime="0.00" waitingCount="0" stopTime="0.00" timeLoss="0.52" rerouteNo="0" devices="tripinfo_70" vType="DEFAULT_VEHTYPE" speedFactor="1.04" vaporized=""/>
    <tripinfo id="62" depart="66.00" departLane="" departPos="0.00" departSpeed="30.07" departDelay="0.00" arrival="119.00" arrivalLane="" arrivalPos="257.55" arrivalSpeed="24.97" duration="53.00" routeLength="1324.09" waitingTime="1.75" waitingCount="0" stopTime="0.00" timeLoss="8.39" rerouteNo="0" devices="tripinfo_62" vType="DEFAULT_VEHTYPE" speedFactor="1.08" vaporized=""/>
    <tripinfo id="25" depart="28.00" departLane="" departPos="0.00" departSpeed="19.77" departDelay="0.00" arrival="120.00" arrivalLane="" arrivalPos="325.99" arrivalSpeed="19.77" duration="92.00" routeLength="1811.14" waitingTime="0.00" waitingCount="0" stopTime="0.00" timeLoss="0.00" rerouteNo="0" devices="tripinfo_25" vType="DEFAULT_VEHTYPE" speedFactor="0.89" vaporized=""/>
    <tripinfo id="54" depart="57.00" departLane="" departPos="0.00" departSpeed="28.25" departDelay="0.00" arrival="120.00" arrivalLane="" arrivalPos="294.40" arrivalSpeed="28.25" duration="63.00" routeLength="1556.98" waitingTime="1.71" waitingCount="0" stopTime="0.00" timeLoss="6.96" rerouteNo="0" devices="tripinfo_54" vType="DEFAULT_VEHTYPE" speedFactor="1.02" vaporized=""/>
    <tripinfo id="100" depart="97.00" departLane="" departPos="0.00" departSpeed="15.58" departDelay="0.00" arrival="120.00" arrivalLane="" arrivalPos="38.78" arrivalSpeed="15.58" duration="23.00" routeLength="594.71" waitingTime="0.00" waitingCount="0" stopTime="0.00" timeLoss="0.00" rerouteNo="0" devices="tripinfo_100" vType="DEFAULT_VEHTYPE" speedFactor="1.12" vaporized=""/>
    <tripinfo id="20" depart="21.00" departLane="" departPos="0.00" departSpeed="20.80" departDelay="0.00" arrival="122.00" arrivalLane="" arrivalPos="257.55" arrivalSpeed="26.01" duration="101.00" routeLength="2030.30" waitingTime="0.00" waitingCount="0" stopTime="0.00" timeLoss="0.00" rerouteNo="0" devices="tripinfo_20" vType="DEFAULT_VEHTYPE" speedFactor="0.94" vaporized=""/>
    <tripinfo id="52" depart="55.00" departLane="" departPos="0.00" departSpeed="23.75" departDelay="0.00" arrival="122.00" arrivalLane="" arrivalPos="294.40" arrivalSpeed="23.75" duration="67.00" routeLength="1556.98" waitingTime="0.96" waitingCount="0" stopTime="0.00" timeLoss="0.96" rerouteNo="0" devices="tripinfo_52" vType="DEFAULT_VEHTYPE" speedFactor="0.85" vaporized=""/>
    <tripinfo id="53" depart="56.00" departLane="" departPos="0.00" departSpeed="16.23" departDelay="0.00" arrival="122.00" arrivalLane="" arrivalPos="325.99" arrivalSpeed="19.77" duration="66.00" routeLength="1300.17" waitingTime="1.27" waitingCount="0" stopTime="0.00" timeLoss="13.84" rerouteNo="0" devices="tripinfo_53" vType="DEFAULT_VEHTYPE" speedFactor="1.17" vaporized=""/>
    <tripinfo id="31" depart="35.00" departLane="" departPos="0.00" departSpeed="20.69" departDelay="0.00" arrival="123.00" arrivalLane="" arrivalPos="325.99" arrivalSpeed="20.53" duration="88.00" routeLength="1811.14" waitingTime="0.00" waitingCount="0" stopTime="0.00" timeLoss="0.04" rerouteNo="0" devices="tripinfo_31" vType="DEFAULT_VEHTYPE" speedFactor="0.93" vaporized=""/>
    <tripinfo id="75" depart="76.00" departLane="" departPos="0.00" departSpeed="29.33" departDelay="0.00" arrival="124.00" arrivalLane="" arrivalPos="257.55" arrivalSpeed="26.01" duration="48.00" routeLength="1324.09" waitingTime="0.21" waitingCount="0" stopTime="0.00" timeLoss="2.10" rerouteNo="0" devices="tripinfo_75" vType="DEFAULT_VEHTYPE" speedFactor="1.06" vaporized=""/>
    <tripinfo id="55" depart="57.00" departLane="" departPos="0.00" departSpeed="30.44" departDelay="0.00" arrival="125.00" arrivalLane="" arrivalPos="806.12" arrivalSpeed="24.35" duration="68.00" routeLength="1738.65" waitingTime="0.00" waitingCount="0" stopTime="0.00" timeLoss="0.00" rerouteNo="0" devices="tripinfo_55" vType="DEFAULT_VEHTYPE" speedFactor="1.10" vaporized=""/>
    <tripinfo id="61" depart="66.00" departLane="" departPos="0.00" departSpeed="26.93" departDelay="0.00" arrival="125.00" arrivalLane="" arrivalPos="143.59" arrivalSpeed="21.54" duration="59.00" routeLength="1010.43" waitingTime="0.00" waitingCount="0" stopTime="0.00" timeLoss="0.00" rerouteNo="0" devices="tripinfo_61" vType="DEFAULT_VEHTYPE" speedFactor="0.97" vaporized=""/>
    <tripinfo id="41" depart="46.00" departLane="" departPos="0.00" departSpeed="25.02" departDelay="0.00" arrival="126.00" arrivalLane="" arrivalPos="325.99" arrivalSpeed="20.01" duration="80.00" routeLength="1674.93" waitingTime="0.77" waitingCount="0" stopTime="0.00" timeLoss="0.77" rerouteNo="0" devices="tripinfo_41" vType="DEFAULT_VEHTYPE" speedFactor="0.90" vaporized=""/>
    <tripinfo id="83" depart="81.00" departLane="" departPos="0.00" departSpeed="27.73" departDelay="0.00" arrival="126.00" arrivalLane="" arrivalPos="257.55" arrivalSpeed="27.73" duration="45.00" routeLength="1228.81" waitingTime="0.00" waitingCount="0" stopTime="0.00" timeLoss="0.00" rerouteNo="0" devices="tripinfo_83" vType="DEFAULT_VEHTYPE" speedFactor="1.00" vaporized=""/>
    <tripinfo id="40" depart="45.00" departLane="" departPos="0.00" departSpeed="24.49" departDelay="0.00" arrival="127.00" arrivalLane="" arrivalPos="325.99" arrivalSpeed="20.01" duration="82.00" routeLength="1811.14" waitingTime="0.00" waitingCount="0" stopTime="0.00" timeLoss="7.95" rerouteNo="0" devices="tripinfo_40" vType="DEFAULT_VEHTYPE" speedFactor="1.10" vaporized=""/>
    <tripinfo id="97" depart="96.00" departLane="" departPos="0.00" departSpeed="29.36" departDelay="0.00" arrival="128.00" arrivalLane="" arrivalPos="71.22" arrivalSpeed="14.68" duration="32.00" routeLength="848.93" waitingTime="0.00" waitingCount="0" stopTime="0.00" timeLoss="0.00" rerouteNo="0" devices="tripinfo_97" vType="DEFAULT_VEHTYPE" speedFactor="1.06" vaporized=""/>
    <tripinfo id="65" depart="68.00" departLane="" departPos="0.00" departSpeed="13.71" departDelay="0.00" arrival="130.00" arrivalLane="" arrivalPos="325.99" arrivalSpeed="21.93" duration="62.00" routeLength="1300.17" waitingTime="1.24" waitingCount="0" stopTime="0.00" timeLoss="1.24" rerouteNo="0" devices="tripinfo_65" vType="DEFAULT_VEHTYPE" speedFactor="0.99" vaporized=""/>
    <tripinfo id="79" depart="78.00" departLane="" departPos="0.00" departSpeed="13.64" departDelay="0.00" arrival="130.00" arrivalLane="" arrivalPos="143.59" arrivalSpeed="21.82" duration="52.00" routeLength="1084.30" waitingTime="0.00" waitingCount="0" stopTime="0.00" timeLoss="0.00" rerouteNo="0" devices="tripinfo_79" vType="DEFAULT_VEHTYPE" speedFactor="0.98" vaporized=""/>
    <tripinfo id="108" depart="104.00" departLane="" departPos="0.00" departSpeed="14.08" departDelay="0.00" arrival="130.00" arrivalLane="" arrivalPos="38.78" arrivalSpeed="14.08" duration="26.00" routeLength="594.71" waitingTime="0.00" waitingCount="0" stopTime="0.00" timeLoss="0.00" rerouteNo="0" devices="tripinfo_108" vType="DEFAULT_VEHTYPE" speedFactor="1.01" vaporized=""/>
    <tripinfo id="85" depart="82.00" departLane="" departPos="0.00" departSpeed="13.43" departDelay="0.00" arrival="134.00" arrivalLane="" arrivalPos="257.55" arrivalSpeed="26.86" duration="52.00" routeLength="1329.61" waitingTime="0.00" waitingCount="0" stopTime="0.00" timeLoss="0.00" rerouteNo="0" devices="tripinfo_85" vType="DEFAULT_VEHTYPE" speedFactor="0.97" vaporized=""/>
    <tripinfo id="95" depart="96.00" departLane="" departPos="0.00" departSpeed="25.60" departDelay="0.00" arrival="134.00" arrivalLane="" arrivalPos="100.00" arrivalSpeed="25.60" duration="38.00" routeLength="952.53" waitingTime="0.00" waitingCount="0" stopTime="0.00" timeLoss="0.00" rerouteNo="0" devices="tripinfo_95" vType="DEFAULT_VEHTYPE" speedFactor="0.92" vaporized=""/>
    <tripinfo id="68" depart="70.00" departLane="" departPos="0.00" departSpeed="12.59" departDelay="0.00" arrival="135.00" arrivalLane="" arrivalPos="143.59" arrivalSpeed="20.15" duration="65.00" routeLength="1015.95" waitingTime="0.00" waitingCount="0" stopTime="0.00" timeLoss="0.00" rerouteNo="0" devices="tripinfo_68" vType="DEFAULT_VEHTYPE" speedFactor="0.91" vaporized=""/>
    <tripinfo id="103" depart="98.00" departLane="" departPos="0.00" departSpeed="26.58" departDelay="0.00" arrival="135.00" arrivalLane="" arrivalPos="100.00" arrivalSpeed="26.57" duration="37.00" routeLength="952.53" waitingTime="0.20" waitingCount="0" stopTime="0.00" timeLoss="0.26" rerouteNo="0" devices="tripinfo_103" vType="DEFAULT_VEHTYPE" speedFactor="0.96" vaporized=""/>
    <tripinfo id="50" depart="52.00" departLane="" departPos="0.00" departSpeed="19.48" departDelay="0.00" arrival="137.00" arrivalLane="" arrivalPos="38.78" arrivalSpeed="12.18" duration="85.00" routeLength="1325.01" waitingTime="0.00" waitingCount="0" stopTime="0.00" timeLoss="0.00" rerouteNo="0" devices="tripinfo_50" vType="DEFAULT_VEHTYPE" speedFactor="0.88" vaporized=""/>
    <tripinfo id="60" depart="65.00" departLane="" departPos="0.00" departSpeed="22.74" departDelay="0.00" arrival="137.00" arrivalLane="" arrivalPos="143.59" arrivalSpeed="20.15" duration="72.00" routeLength="1532.30" waitingTime="1.10" waitingCount="0" stopTime="0.00" timeLoss="4.09" rerouteNo="0" devices="tripinfo_60" vType="DEFAULT_VEHTYPE" speedFactor="1.02" vaporized=""/>