<?xml version="1.0" encoding="UTF-8"?>

<!-- generated on 2023-04-28 21:52:49 by Eclipse SUMO sumo Version 1.16.0
<configuration xmlns:xsi="http://www.w3.org/2001/XMLSchema-instance" xsi:noNamespaceSchemaLocation="http://sumo.dlr.de/xsd/sumoConfiguration.xsd">

    <input>
        <net-file value="C:\Users\Local_Man\Desktop\Stolen%20Music\school%20stuff%20for%20college\Semester%2015%20(UH%20Graduate%20School)\COSC%206364%20Nikolaos\SUMO_Project\COSC6364_Project\configurations\maps\Braess_Homebrew_fixed1.net.xml"/>
        <route-files value="./configurations/Rounds/Braess_Homebrew_fixed1.net.xml-test-1/Macroscopic_DUE/021/Trips_File_021.rou.xml"/>
    </input>

    <output>
        <summary-output value="./configurations/Rounds/Braess_Homebrew_fixed1.net.xml-test-1/Macroscopic_DUE/021/summary.xml"/>
        <tripinfo-output value="./configurations/Rounds/Braess_Homebrew_fixed1.net.xml-test-1/Macroscopic_DUE/021/trips.trips.xml"/>
        <statistic-output value="./configurations/Rounds/Braess_Homebrew_fixed1.net.xml-test-1/Macroscopic_DUE/021/stats_output.xml"/>
    </output>

    <time>
        <begin value="0"/>
    </time>

    <report>
        <log value="./configurations/Rounds/Braess_Homebrew_fixed1.net.xml-test-1/Macroscopic_DUE/021/log.sumo.log"/>
        <no-step-log value="true"/>
    </report>

    <gui_only>
        <quit-on-end value="true"/>
    </gui_only>

</configuration>
-->

<tripinfos xmlns:xsi="http://www.w3.org/2001/XMLSchema-instance" xsi:noNamespaceSchemaLocation="http://sumo.dlr.de/xsd/tripinfo_file.xsd">
    <tripinfo id="3" depart="4.00" departLane="E0_0" departPos="5.10" departSpeed="21.65" departDelay="0.00" arrival="89.00" arrivalLane="E3_0" arrivalPos="90.46" arrivalSpeed="31.65" duration="85.00" routeLength="1314.99" waitingTime="0.00" waitingCount="0" stopTime="0.00" timeLoss="8.66" rerouteNo="0" devices="tripinfo_3" vType="DEFAULT_VEHTYPE" speedFactor="1.08" vaporized=""/>
    <tripinfo id="4" depart="5.00" departLane="E0_0" departPos="5.10" departSpeed="18.97" departDelay="0.00" arrival="90.00" arrivalLane="E3_0" arrivalPos="90.46" arrivalSpeed="33.46" duration="85.00" routeLength="1314.99" waitingTime="0.00" waitingCount="0" stopTime="0.00" timeLoss="16.54" rerouteNo="0" devices="tripinfo_4" vType="DEFAULT_VEHTYPE" speedFactor="1.20" vaporized=""/>
    <tripinfo id="5" depart="6.00" departLane="E0_0" departPos="5.10" departSpeed="17.18" departDelay="0.00" arrival="97.00" arrivalLane="E3_0" arrivalPos="90.46" arrivalSpeed="31.12" duration="91.00" routeLength="1314.99" waitingTime="0.00" waitingCount="0" stopTime="0.00" timeLoss="12.64" rerouteNo="0" devices="tripinfo_5" vType="DEFAULT_VEHTYPE" speedFactor="1.05" vaporized=""/>
    <tripinfo id="6" depart="7.00" departLane="E0_0" departPos="5.10" departSpeed="14.30" departDelay="1.00" arrival="99.00" arrivalLane="E3_0" arrivalPos="90.46" arrivalSpeed="31.74" duration="92.00" routeLength="1314.99" waitingTime="0.00" waitingCount="0" stopTime="0.00" timeLoss="15.42" rerouteNo="0" devices="tripinfo_6" vType="DEFAULT_VEHTYPE" speedFactor="1.08" vaporized=""/>
    <tripinfo id="8" depart="9.00" departLane="E0_0" departPos="5.10" departSpeed="7.74" departDelay="2.00" arrival="107.00" arrivalLane="E3_0" arrivalPos="90.46" arrivalSpeed="29.37" duration="98.00" routeLength="1314.99" waitingTime="0.00" waitingCount="0" stopTime="0.00" timeLoss="17.67" rerouteNo="0" devices="tripinfo_8" vType="DEFAULT_VEHTYPE" speedFactor="1.02" vaporized=""/>
    <tripinfo id="10" depart="12.00" departLane="E0_0" departPos="5.10" departSpeed="3.42" departDelay="4.00" arrival="119.00" arrivalLane="E3_0" arrivalPos="90.46" arrivalSpeed="26.51" duration="107.00" routeLength="1314.99" waitingTime="0.00" waitingCount="0" stopTime="0.00" timeLoss="18.38" rerouteNo="0" devices="tripinfo_10" vType="DEFAULT_VEHTYPE" speedFactor="0.92" vaporized=""/>
    <tripinfo id="11" depart="15.00" departLane="E0_0" departPos="5.10" departSpeed="6.84" departDelay="6.00" arrival="121.00" arrivalLane="E3_0" arrivalPos="90.46" arrivalSpeed="29.50" duration="106.00" routeLength="1314.99" waitingTime="0.00" waitingCount="0" stopTime="0.00" timeLoss="32.47" rerouteNo="0" devices="tripinfo_11" vType="DEFAULT_VEHTYPE" speedFactor="1.12" vaporized=""/>
    <tripinfo id="12" depart="17.00" departLane="E0_0" departPos="5.10" departSpeed="7.73" departDelay="6.00" arrival="127.00" arrivalLane="E3_0" arrivalPos="90.46" arrivalSpeed="25.75" duration="110.00" routeLength="1314.99" waitingTime="0.00" waitingCount="0" stopTime="0.00" timeLoss="18.66" rerouteNo="0" devices="tripinfo_12" vType="DEFAULT_VEHTYPE" speedFactor="0.90" vaporized=""/>
    <tripinfo id="14" depart="21.00" departLane="E0_0" departPos="5.10" departSpeed="9.94" departDelay="9.00" arrival="129.00" arrivalLane="E3_0" arrivalPos="90.46" arrivalSpeed="29.23" duration="108.00" routeLength="1314.99" waitingTime="0.00" waitingCount="0" stopTime="0.00" timeLoss="28.52" rerouteNo="0" devices="tripinfo_14" vType="DEFAULT_VEHTYPE" speedFactor="1.04" vaporized=""/>
    <tripinfo id="18" depart="29.00" departLane="E0_0" departPos="5.10" departSpeed="2.06" departDelay="13.00" arrival="130.00" arrivalLane="E3_0" arrivalPos="90.46" arrivalSpeed="30.29" duration="101.00" routeLength="1314.99" waitingTime="0.00" waitingCount="0" stopTime="0.00" timeLoss="21.26" rerouteNo="0" devices="tripinfo_18" vType="DEFAULT_VEHTYPE" speedFactor="1.03" vaporized=""/>
    <tripinfo id="20" depart="34.00" departLane="E0_0" departPos="5.10" departSpeed="4.41" departDelay="17.00" arrival="137.00" arrivalLane="E3_0" arrivalPos="90.46" arrivalSpeed="30.23" duration="103.00" routeLength="1314.99" waitingTime="0.00" waitingCount="0" stopTime="0.00" timeLoss="21.47" rerouteNo="0" devices="tripinfo_20" vType="DEFAULT_VEHTYPE" speedFactor="1.01" vaporized=""/>
    <tripinfo id="2" depart="1.00" departLane="E0_0" departPos="5.10" departSpeed="19.50" departDelay="0.00" arrival="147.00" arrivalLane="E3_0" arrivalPos="90.46" arrivalSpeed="25.29" duration="146.00" routeLength="1317.38" waitingTime="42.00" waitingCount="1" stopTime="0.00" timeLoss="57.97" rerouteNo="0" devices="tripinfo_2" vType="DEFAULT_VEHTYPE" speedFactor="0.98" vaporized=""/>
    <tripinfo id="21" depart="36.00" departLane="E0_0" departPos="5.10" departSpeed="4.73" departDelay="19.00" arrival="151.00" arrivalLane="E3_0" arrivalPos="90.46" arrivalSpeed="26.00" duration="115.00" routeLength="1314.99" waitingTime="0.00" waitingCount="0" stopTime="0.00" timeLoss="21.08" rerouteNo="0" devices="tripinfo_21" vType="DEFAULT_VEHTYPE" speedFactor="0.87" vaporized=""/>
    <tripinfo id="22" depart="38.00" departLane="E0_0" departPos="5.10" departSpeed="2.82" departDelay="21.00" arrival="153.00" arrivalLane="E3_0" arrivalPos="90.46" arrivalSpeed="29.90" duration="115.00" routeLength="1314.99" waitingTime="0.00" waitingCount="0" stopTime="0.00" timeLoss="34.73" rerouteNo="0" devices="tripinfo_22" vType="DEFAULT_VEHTYPE" speedFactor="1.03" vaporized=""/>
    <tripinfo id="23" depart="41.00" departLane="E0_0" departPos="5.10" departSpeed="5.82" departDelay="23.00" arrival="154.00" arrivalLane="E3_0" arrivalPos="90.46" arrivalSpeed="29.75" duration="113.00" routeLength="1314.99" waitingTime="0.00" waitingCount="0" stopTime="0.00" timeLoss="39.98" rerouteNo="0" devices="tripinfo_23" vType="DEFAULT_VEHTYPE" speedFactor="1.13" vaporized=""/>
    <tripinfo id="24" depart="43.00" departLane="E0_0" departPos="5.10" departSpeed="3.36" departDelay="25.00" arrival="157.00" arrivalLane="E3_0" arrivalPos="90.46" arrivalSpeed="26.28" duration="114.00" routeLength="1314.99" waitingTime="0.00" waitingCount="0" stopTime="0.00" timeLoss="22.40" rerouteNo="0" devices="tripinfo_24" vType="DEFAULT_VEHTYPE" speedFactor="0.89" vaporized=""/>
    <tripinfo id="25" depart="46.00" departLane="E0_0" departPos="5.10" departSpeed="5.99" departDelay="26.00" arrival="159.00" arrivalLane="E3_0" arrivalPos="90.46" arrivalSpeed="29.66" duration="113.00" routeLength="1314.99" waitingTime="0.00" waitingCount="0" stopTime="0.00" timeLoss="41.47" rerouteNo="0" devices="tripinfo_25" vType="DEFAULT_VEHTYPE" speedFactor="1.15" vaporized=""/>
    <tripinfo id="26" depart="48.00" departLane="E0_0" departPos="5.10" departSpeed="5.30" departDelay="27.00" arrival="160.00" arrivalLane="E3_0" arrivalPos="90.46" arrivalSpeed="28.63" duration="112.00" routeLength="1314.99" waitingTime="0.00" waitingCount="0" stopTime="0.00" timeLoss="38.60" rerouteNo="0" devices="tripinfo_26" vType="DEFAULT_VEHTYPE" speedFactor="1.12" vaporized=""/>
    <tripinfo id="27" depart="50.00" departLane="E0_0" departPos="5.10" departSpeed="4.62" departDelay="28.00" arrival="162.00" arrivalLane="E3_0" arrivalPos="90.46" arrivalSpeed="29.62" duration="112.00" routeLength="1314.99" waitingTime="0.00" waitingCount="0" stopTime="0.00" timeLoss="28.66" rerouteNo="0" devices="tripinfo_27" vType="DEFAULT_VEHTYPE" speedFactor="0.99" vaporized=""/>
    <tripinfo id="28" depart="52.00" departLane="E0_0" departPos="5.10" departSpeed="4.68" departDelay="30.00" arrival="163.00" arrivalLane="E3_0" arrivalPos="90.46" arrivalSpeed="28.28" duration="111.00" routeLength="1314.99" waitingTime="0.00" waitingCount="0" stopTime="0.00" timeLoss="26.21" rerouteNo="0" devices="tripinfo_28" vType="DEFAULT_VEHTYPE" speedFactor="0.97" vaporized=""/>
    <tripinfo id="30" depart="57.00" departLane="E0_0" departPos="5.10" departSpeed="3.54" departDelay="32.00" arrival="167.00" arrivalLane="E3_0" arrivalPos="90.46" arrivalSpeed="27.75" duration="110.00" routeLength="1314.99" waitingTime="0.00" waitingCount="0" stopTime="0.00" timeLoss="22.41" rerouteNo="0" devices="tripinfo_30" vType="DEFAULT_VEHTYPE" speedFactor="0.94" vaporized=""/>
    <tripinfo id="31" depart="59.00" departLane="E0_0" departPos="5.10" departSpeed="1.33" departDelay="33.00" arrival="168.00" arrivalLane="E3_0" arrivalPos="90.46" arrivalSpeed="30.16" duration="109.00" routeLength="1314.99" waitingTime="0.00" waitingCount="0" stopTime="0.00" timeLoss="34.78" rerouteNo="0" devices="tripinfo_31" vType="DEFAULT_VEHTYPE" speedFactor="1.10" vaporized=""/>
    <tripinfo id="33" depart="66.00" departLane="E0_0" departPos="5.10" departSpeed="5.25" departDelay="36.00" arrival="170.00" arrivalLane="E3_0" arrivalPos="90.46" arrivalSpeed="30.35" duration="104.00" routeLength="1314.99" waitingTime="0.00" waitingCount="0" stopTime="0.00" timeLoss="24.13" rerouteNo="0" devices="tripinfo_33" vType="DEFAULT_VEHTYPE" speedFactor="1.03" vaporized=""/>
    <tripinfo id="34" depart="68.00" departLane="E0_0" departPos="5.10" departSpeed="5.93" departDelay="37.00" arrival="171.00" arrivalLane="E3_0" arrivalPos="90.46" arrivalSpeed="30.95" duration="103.00" routeLength="1314.99" waitingTime="0.00" waitingCount="0" stopTime="0.00" timeLoss="26.03" rerouteNo="0" devices="tripinfo_34" vType="DEFAULT_VEHTYPE" speedFactor="1.07" vaporized=""/>
    <tripinfo id="35" depart="70.00" departLane="E0_0" departPos="5.10" departSpeed="7.15" departDelay="33.00" arrival="173.00" arrivalLane="E3_0" arrivalPos="90.46" arrivalSpeed="30.98" duration="103.00" routeLength="1314.99" waitingTime="0.00" waitingCount="0" stopTime="0.00" timeLoss="23.37" rerouteNo="0" devices="tripinfo_35" vType="DEFAULT_VEHTYPE" speedFactor="1.04" vaporized=""/>
    <tripinfo id="7" depart="8.00" departLane="E0_0" departPos="5.10" departSpeed="11.11" departDelay="1.00" arrival="182.00" arrivalLane="E3_0" arrivalPos="90.46" arrivalSpeed="24.15" duration="174.00" routeLength="1317.38" waitingTime="54.00" waitingCount="2" stopTime="0.00" timeLoss="82.96" rerouteNo="0" devices="tripinfo_7" vType="DEFAULT_VEHTYPE" speedFactor="0.94" vaporized=""/>
    <tripinfo id="37" depart="74.00" departLane="E0_0" departPos="5.10" departSpeed="2.65" departDelay="36.00" arrival="189.00" arrivalLane="E3_0" arrivalPos="90.46" arrivalSpeed="25.79" duration="115.00" routeLength="1314.99" waitingTime="0.00" waitingCount="0" stopTime="0.00" timeLoss="23.83" rerouteNo="0" devices="tripinfo_37" vType="DEFAULT_VEHTYPE" speedFactor="0.90" vaporized=""/>
    <tripinfo id="40" depart="81.00" departLane="E0_0" departPos="5.10" departSpeed="0.81" departDelay="41.00" arrival="191.00" arrivalLane="E3_0" arrivalPos="90.46" arrivalSpeed="30.31" duration="110.00" routeLength="1314.99" waitingTime="0.00" waitingCount="0" stopTime="0.00" timeLoss="32.27" rerouteNo="0" devices="tripinfo_40" vType="DEFAULT_VEHTYPE" speedFactor="1.06" vaporized=""/>
    <tripinfo id="41" depart="85.00" departLane="E0_0" departPos="5.10" departSpeed="6.41" departDelay="44.00" arrival="192.00" arrivalLane="E3_0" arrivalPos="90.46" arrivalSpeed="29.21" duration="107.00" routeLength="1314.99" waitingTime="0.00" waitingCount="0" stopTime="0.00" timeLoss="36.63" rerouteNo="0" devices="tripinfo_41" vType="DEFAULT_VEHTYPE" speedFactor="1.17" vaporized=""/>
    <tripinfo id="47" depart="99.00" departLane="E0_0" departPos="5.10" departSpeed="2.72" departDelay="51.00" arrival="199.00" arrivalLane="E3_0" arrivalPos="90.46" arrivalSpeed="29.58" duration="100.00" routeLength="1314.99" waitingTime="0.00" waitingCount="0" stopTime="0.00" timeLoss="19.36" rerouteNo="0" devices="tripinfo_47" vType="DEFAULT_VEHTYPE" speedFactor="1.02" vaporized=""/>
    <tripinfo id="48" depart="102.00" departLane="E0_0" departPos="5.10" departSpeed="4.64" departDelay="53.00" arrival="204.00" arrivalLane="E3_0" arrivalPos="90.46" arrivalSpeed="29.01" duration="102.00" routeLength="1314.99" waitingTime="0.00" waitingCount="0" stopTime="0.00" timeLoss="19.12" rerouteNo="0" devices="tripinfo_48" vType="DEFAULT_VEHTYPE" speedFactor="1.00" vaporized=""/>
    <tripinfo id="49" depart="104.00" departLane="E0_0" departPos="5.10" departSpeed="1.73" departDelay="54.00" arrival="205.00" arrivalLane="E3_0" arrivalPos="90.46" arrivalSpeed="31.88" duration="101.00" routeLength="1314.99" waitingTime="0.00" waitingCount="0" stopTime="0.00" timeLoss="27.20" rerouteNo="0" devices="tripinfo_49" vType="DEFAULT_VEHTYPE" speedFactor="1.12" vaporized=""/>
    <tripinfo id="9" depart="11.00" departLane="E0_0" departPos="5.10" departSpeed="8.00" departDelay="3.00" arrival="214.00" arrivalLane="E3_0" arrivalPos="90.46" arrivalSpeed="23.74" duration="203.00" routeLength="1317.38" waitingTime="81.00" waitingCount="3" stopTime="0.00" timeLoss="124.37" rerouteNo="0" devices="tripinfo_9" vType="DEFAULT_VEHTYPE" speedFactor="1.09" vaporized=""/>
    <tripinfo id="52" depart="113.00" departLane="E0_0" departPos="5.10" departSpeed="1.13" departDelay="58.00" arrival="217.00" arrivalLane="E3_0" arrivalPos="90.46" arrivalSpeed="28.56" duration="104.00" routeLength="1314.99" waitingTime="0.00" waitingCount="0" stopTime="0.00" timeLoss="18.29" rerouteNo="0" devices="tripinfo_52" vType="DEFAULT_VEHTYPE" speedFactor="0.96" vaporized=""/>
    <tripinfo id="53" depart="116.00" departLane="E0_0" departPos="5.10" departSpeed="0.98" departDelay="61.00" arrival="225.00" arrivalLane="E3_0" arrivalPos="90.46" arrivalSpeed="26.00" duration="109.00" routeLength="1314.99" waitingTime="0.00" waitingCount="0" stopTime="0.00" timeLoss="18.57" rerouteNo="0" devices="tripinfo_53" vType="DEFAULT_VEHTYPE" speedFactor="0.91" vaporized=""/>
    <tripinfo id="54" depart="119.00" departLane="E0_0" departPos="5.10" departSpeed="0.13" departDelay="64.00" arrival="227.00" arrivalLane="E3_0" arrivalPos="90.46" arrivalSpeed="28.04" duration="108.00" routeLength="1314.99" waitingTime="0.00" waitingCount="0" stopTime="0.00" timeLoss="20.84" rerouteNo="0" devices="tripinfo_54" vType="DEFAULT_VEHTYPE" speedFactor="0.95" vaporized=""/>
    <tripinfo id="55" depart="123.00" departLane="E0_0" departPos="5.10" departSpeed="3.69" departDelay="67.00" arrival="228.00" arrivalLane="E3_0" arrivalPos="90.46" arrivalSpeed="29.06" duration="105.00" routeLength="1314.99" waitingTime="0.00" waitingCount="0" stopTime="0.00" timeLoss="24.30" rerouteNo="0" devices="tripinfo_55" vType="DEFAULT_VEHTYPE" speedFactor="1.02" vaporized=""/>
    <tripinfo id="57" depart="128.00" departLane="E0_0" departPos="5.10" departSpeed="6.80" departDelay="70.00" arrival="230.00" arrivalLane="E3_0" arrivalPos="90.46" arrivalSpeed="30.86" duration="102.00" routeLength="1314.99" waitingTime="0.00" waitingCount="0" stopTime="0.00" timeLoss="23.38" rerouteNo="0" devices="tripinfo_57" vType="DEFAULT_VEHTYPE" speedFactor="1.06" vaporized=""/>
    <tripinfo id="58" depart="130.00" departLane="E0_0" departPos="5.10" departSpeed="7.09" departDelay="70.00" arrival="231.00" arrivalLane="E3_0" arrivalPos="90.46" arrivalSpeed="30.59" duration="101.00" routeLength="1314.99" waitingTime="0.00" waitingCount="0" stopTime="0.00" timeLoss="27.02" rerouteNo="0" devices="tripinfo_58" vType="DEFAULT_VEHTYPE" speedFactor="1.12" vaporized=""/>
    <tripinfo id="59" depart="132.00" departLane="E0_0" departPos="5.10" departSpeed="8.13" departDelay="72.00" arrival="232.00" arrivalLane="E3_0" arrivalPos="90.46" arrivalSpeed="30.83" duration="100.00" routeLength="1314.99" waitingTime="0.00" waitingCount="0" stopTime="0.00" timeLoss="20.32" rerouteNo="0" devices="tripinfo_59" vType="DEFAULT_VEHTYPE" speedFactor="1.03" vaporized=""/>
    <tripinfo id="60" depart="134.00" departLane="E0_0" departPos="5.10" departSpeed="9.37" departDelay="74.00" arrival="242.00" arrivalLane="E3_0" arrivalPos="90.46" arrivalSpeed="27.18" duration="108.00" routeLength="1314.99" waitingTime="0.00" waitingCount="0" stopTime="0.00" timeLoss="18.19" rerouteNo="0" devices="tripinfo_60" vType="DEFAULT_VEHTYPE" speedFactor="0.92" vaporized=""/>
    <tripinfo id="61" depart="135.00" departLane="E0_0" departPos="5.10" departSpeed="5.74" departDelay="73.00" arrival="243.00" arrivalLane="E3_0" arrivalPos="90.46" arrivalSpeed="28.50" duration="108.00" routeLength="1314.99" waitingTime="0.00" waitingCount="0" stopTime="0.00" timeLoss="32.39" rerouteNo="0" devices="tripinfo_61" vType="DEFAULT_VEHTYPE" speedFactor="1.09" vaporized=""/>
    <tripinfo id="63" depart="139.00" departLane="E0_0" departPos="5.10" departSpeed="5.52" departDelay="76.00" arrival="245.00" arrivalLane="E3_0" arrivalPos="90.46" arrivalSpeed="30.43" duration="106.00" routeLength="1314.99" waitingTime="0.00" waitingCount="0" stopTime="0.00" timeLoss="24.93" rerouteNo="0" devices="tripinfo_63" vType="DEFAULT_VEHTYPE" speedFactor="1.02" vaporized=""/>
    <tripinfo id="64" depart="141.00" departLane="E0_0" departPos="5.10" departSpeed="5.80" departDelay="77.00" arrival="246.00" arrivalLane="E3_0" arrivalPos="90.46" arrivalSpeed="32.06" duration="105.00" routeLength="1314.99" waitingTime="0.00" waitingCount="0" stopTime="0.00" timeLoss="29.03" rerouteNo="0" devices="tripinfo_64" vType="DEFAULT_VEHTYPE" speedFactor="1.08" vaporized=""/>
    <tripinfo id="66" depart="145.00" departLane="E0_0" departPos="5.10" departSpeed="3.36" departDelay="81.00" arrival="251.00" arrivalLane="E3_0" arrivalPos="90.46" arrivalSpeed="28.62" duration="106.00" routeLength="1314.99" waitingTime="0.00" waitingCount="0" stopTime="0.00" timeLoss="21.68" rerouteNo="0" devices="tripinfo_66" vType="DEFAULT_VEHTYPE" speedFactor="0.98" vaporized=""/>
    <tripinfo id="67" depart="147.00" departLane="E0_0" departPos="5.10" departSpeed="2.20" departDelay="82.00" arrival="252.00" arrivalLane="E3_0" arrivalPos="90.46" arrivalSpeed="29.34" duration="105.00" routeLength="1314.99" waitingTime="0.00" waitingCount="0" stopTime="0.00" timeLoss="23.30" rerouteNo="0" devices="tripinfo_67" vType="DEFAULT_VEHTYPE" speedFactor="1.01" vaporized=""/>
    <tripinfo id="13" depart="19.00" departLane="E0_0" departPos="5.10" departSpeed="8.06" departDelay="8.00" arrival="262.00" arrivalLane="E3_0" arrivalPos="90.46" arrivalSpeed="26.31" duration="243.00" routeLength="1317.38" waitingTime="110.00" waitingCount="4" stopTime="0.00" timeLoss="149.89" rerouteNo="0" devices="tripinfo_13" vType="DEFAULT_VEHTYPE" speedFactor="0.93" vaporized=""/>
    <tripinfo id="15" depart="22.00" departLane="E0_0" departPos="5.10" departSpeed="5.03" departDelay="10.00" arrival="264.00" arrivalLane="E3_0" arrivalPos="90.46" arrivalSpeed="25.14" duration="242.00" routeLength="1317.38" waitingTime="105.00" waitingCount="4" stopTime="0.00" timeLoss="149.88" rerouteNo="0" devices="tripinfo_15" vType="DEFAULT_VEHTYPE" speedFactor="0.94" vaporized=""/>
    <tripinfo id="16" depart="24.00" departLane="E0_0" departPos="5.10" departSpeed="3.59" departDelay="10.00" arrival="266.00" arrivalLane="E3_0" arrivalPos="90.46" arrivalSpeed="25.22" duration="242.00" routeLength="1317.38" waitingTime="99.00" waitingCount="4" stopTime="0.00" timeLoss="162.70" rerouteNo="0" devices="tripinfo_16" vType="DEFAULT_VEHTYPE" speedFactor="1.08" vaporized=""/>
    <tripinfo id="69" depart="153.00" departLane="E0_0" departPos="5.10" departSpeed="7.01" departDelay="83.00" arrival="273.00" arrivalLane="E3_0" arrivalPos="90.46" arrivalSpeed="24.24" duration="120.00" routeLength="1314.99" waitingTime="0.00" waitingCount="0" stopTime="0.00" timeLoss="21.40" rerouteNo="0" devices="tripinfo_69" vType="DEFAULT_VEHTYPE" speedFactor="0.83" vaporized=""/>
    <tripinfo id="70" depart="155.00" departLane="E0_0" departPos="5.10" departSpeed="7.35" departDelay="80.00" arrival="274.00" arrivalLane="E3_0" arrivalPos="90.46" arrivalSpeed="26.61" duration="119.00" routeLength="1314.99" waitingTime="0.00" waitingCount="0" stopTime="0.00" timeLoss="41.16" rerouteNo="0" devices="tripinfo_70" vType="DEFAULT_VEHTYPE" speedFactor="1.05" vaporized=""/>
    <tripinfo id="71" depart="157.00" departLane="E0_0" departPos="5.10" departSpeed="6.30" departDelay="82.00" arrival="276.00" arrivalLane="E3_0" arrivalPos="90.46" arrivalSpeed="28.20" duration="119.00" routeLength="1314.99" waitingTime="0.00" waitingCount="0" stopTime="0.00" timeLoss="41.00" rerouteNo="0" devices="tripinfo_71" vType="DEFAULT_VEHTYPE" speedFactor="1.06" vaporized=""/>
    <tripinfo id="72" depart="159.00" departLane="E0_0" departPos="5.10" departSpeed="6.08" departDelay="84.00" arrival="278.00" arrivalLane="E3_0" arrivalPos="90.46" arrivalSpeed="25.33" duration="119.00" routeLength="1314.99" waitingTime="0.00" waitingCount="0" stopTime="0.00" timeLoss="23.88" rerouteNo="0" devices="tripinfo_72" vType="DEFAULT_VEHTYPE" speedFactor="0.86" vaporized=""/>
    <tripinfo id="73" depart="161.00" departLane="E0_0" departPos="5.10" departSpeed="1.48" departDelay="85.00" arrival="280.00" arrivalLane="E3_0" arrivalPos="90.46" arrivalSpeed="26.33" duration="119.00" routeLength="1314.99" waitingTime="0.00" waitingCount="0" stopTime="0.00" timeLoss="28.26" rerouteNo="0" devices="tripinfo_73" vType="DEFAULT_VEHTYPE" speedFactor="0.91" vaporized=""/>
    <tripinfo id="74" depart="164.00" departLane="E0_0" departPos="5.10" departSpeed="3.02" departDelay="88.00" arrival="281.00" arrivalLane="E3_0" arrivalPos="90.46" arrivalSpeed="27.40" duration="117.00" routeLength="1314.99" waitingTime="0.00" waitingCount="0" stopTime="0.00" timeLoss="45.18" rerouteNo="0" devices="tripinfo_74" vType="DEFAULT_VEHTYPE" speedFactor="1.14" vaporized=""/>
    <tripinfo id="77" depart="172.00" departLane="E0_0" departPos="5.10" departSpeed="4.17" departDelay="92.00" arrival="283.00" arrivalLane="E3_0" arrivalPos="90.46" arrivalSpeed="28.82" duration="111.00" routeLength="1314.99" waitingTime="0.00" waitingCount="0" stopTime="0.00" timeLoss="25.63" rerouteNo="0" devices="tripinfo_77" vType="DEFAULT_VEHTYPE" speedFactor="0.97" vaporized=""/>
    <tripinfo id="78" depart="174.00" departLane="E0_0" departPos="5.10" departSpeed="2.03" departDelay="92.00" arrival="284.00" arrivalLane="E3_0" arrivalPos="90.46" arrivalSpeed="28.19" duration="110.00" routeLength="1314.99" waitingTime="0.00" waitingCount="0" stopTime="0.00" timeLoss="23.64" rerouteNo="0" devices="tripinfo_78" vType="DEFAULT_VEHTYPE" speedFactor="0.95" vaporized=""/>
    <tripinfo id="79" depart="177.00" departLane="E0_0" departPos="5.10" departSpeed="0.64" departDelay="91.00" arrival="286.00" arrivalLane="E3_0" arrivalPos="90.46" arrivalSpeed="30.80" duration="109.00" routeLength="1314.99" waitingTime="0.00" waitingCount="0" stopTime="0.00" timeLoss="31.86" rerouteNo="0" devices="tripinfo_79" vType="DEFAULT_VEHTYPE" speedFactor="1.07" vaporized=""/>
    <tripinfo id="81" depart="183.00" departLane="E0_0" departPos="5.10" departSpeed="2.35" departDelay="97.00" arrival="287.00" arrivalLane="E3_0" arrivalPos="90.46" arrivalSpeed="30.56" duration="104.00" routeLength="1314.99" waitingTime="0.00" waitingCount="0" stopTime="0.00" timeLoss="24.22" rerouteNo="0" devices="tripinfo_81" vType="DEFAULT_VEHTYPE" speedFactor="1.03" vaporized=""/>
    <tripinfo id="82" depart="186.00" departLane="E0_0" departPos="5.10" departSpeed="3.32" departDelay="98.00" arrival="289.00" arrivalLane="E3_0" arrivalPos="90.46" arrivalSpeed="28.96" duration="103.00" routeLength="1314.99" waitingTime="0.00" waitingCount="0" stopTime="0.00" timeLoss="19.12" rerouteNo="0" devices="tripinfo_82" vType="DEFAULT_VEHTYPE" speedFactor="0.98" vaporized=""/>
    <tripinfo id="84" depart="191.00" departLane="E0_0" departPos="5.10" departSpeed="6.74" departDelay="100.00" arrival="291.00" arrivalLane="E3_0" arrivalPos="90.46" arrivalSpeed="33.39" duration="100.00" routeLength="1314.99" waitingTime="0.00" waitingCount="0" stopTime="0.00" timeLoss="33.62" rerouteNo="0" devices="tripinfo_84" vType="DEFAULT_VEHTYPE" speedFactor="1.25" vaporized=""/>
    <tripinfo id="17" depart="26.00" departLane="E0_0" departPos="5.10" departSpeed="0.61" departDelay="11.00" arrival="300.00" arrivalLane="E3_0" arrivalPos="90.46" arrivalSpeed="23.38" duration="274.00" routeLength="1317.38" waitingTime="128.00" waitingCount="6" stopTime="0.00" timeLoss="189.34" rerouteNo="0" devices="tripinfo_17" vType="DEFAULT_VEHTYPE" speedFactor="1.01" vaporized=""/>
    <tripinfo id="85" depart="193.00" departLane="E0_0" departPos="5.10" departSpeed="6.95" departDelay="101.00" arrival="307.00" arrivalLane="E3_0" arrivalPos="90.46" arrivalSpeed="25.25" duration="114.00" routeLength="1314.99" waitingTime="0.00" waitingCount="0" stopTime="0.00" timeLoss="19.36" rerouteNo="0" devices="tripinfo_85" vType="DEFAULT_VEHTYPE" speedFactor="0.87" vaporized=""/>
    <tripinfo id="87" depart="196.00" departLane="E0_0" departPos="5.10" departSpeed="3.26" departDelay="100.00" arrival="309.00" arrivalLane="E3_0" arrivalPos="90.46" arrivalSpeed="29.21" duration="113.00" routeLength="1314.99" waitingTime="0.00" waitingCount="0" stopTime="0.00" timeLoss="37.59" rerouteNo="0" devices="tripinfo_87" vType="DEFAULT_VEHTYPE" speedFactor="1.10" vaporized=""/>
    <tripinfo id="88" depart="199.00" departLane="E0_0" departPos="5.10" departSpeed="7.20" departDelay="102.00" arrival="310.00" arrivalLane="E3_0" arrivalPos="90.46" arrivalSpeed="27.00" duration="111.00" routeLength="1314.99" waitingTime="0.00" waitingCount="0" stopTime="0.00" timeLoss="26.17" rerouteNo="0" devices="tripinfo_88" vType="DEFAULT_VEHTYPE" speedFactor="0.97" vaporized=""/>
    <tripinfo id="90" depart="203.00" departLane="E0_0" departPos="5.10" departSpeed="7.95" departDelay="106.00" arrival="312.00" arrivalLane="E3_0" arrivalPos="90.46" arrivalSpeed="29.02" duration="109.00" routeLength="1314.99" waitingTime="0.00" waitingCount="0" stopTime="0.00" timeLoss="35.61" rerouteNo="0" devices="tripinfo_90" vType="DEFAULT_VEHTYPE" speedFactor="1.13" vaporized=""/>
    <tripinfo id="91" depart="205.00" departLane="E0_0" departPos="5.10" departSpeed="8.16" departDelay="108.00" arrival="313.00" arrivalLane="E3_0" arrivalPos="90.46" arrivalSpeed="28.38" duration="108.00" routeLength="1314.99" waitingTime="0.00" waitingCount="0" stopTime="0.00" timeLoss="25.02" rerouteNo="0" devices="tripinfo_91" vType="DEFAULT_VEHTYPE" speedFactor="0.99" vaporized=""/>
    <tripinfo id="95" depart="214.00" departLane="E0_0" departPos="5.10" departSpeed="4.10" departDelay="115.00" arrival="315.00" arrivalLane="E3_0" arrivalPos="90.46" arrivalSpeed="29.51" duration="101.00" routeLength="1314.99" waitingTime="0.00" waitingCount="0" stopTime="0.00" timeLoss="20.41" rerouteNo="0" devices="tripinfo_95" vType="DEFAULT_VEHTYPE" speedFactor="1.02" vaporized=""/>
    <tripinfo id="97" depart="219.00" departLane="E0_0" departPos="5.10" departSpeed="4.77" departDelay="118.00" arrival="317.00" arrivalLane="E3_0" arrivalPos="90.46" arrivalSpeed="29.73" duration="98.00" routeLength="1314.99" waitingTime="0.00" waitingCount="0" stopTime="0.00" timeLoss="18.52" rerouteNo="0" devices="tripinfo_97" vType="DEFAULT_VEHTYPE" speedFactor="1.03" vaporized=""/>
    <tripinfo id="98" depart="221.00" departLane="E0_0" departPos="5.10" departSpeed="2.02" departDelay="120.00" arrival="323.00" arrivalLane="E3_0" arrivalPos="90.46" arrivalSpeed="28.92" duration="102.00" routeLength="1314.99" waitingTime="0.00" waitingCount="0" stopTime="0.00" timeLoss="20.31" rerouteNo="0" devices="tripinfo_98" vType="DEFAULT_VEHTYPE" speedFactor="1.00" vaporized=""/>
    <tripinfo id="99" depart="224.00" departLane="E0_0" departPos="5.10" departSpeed="1.76" departDelay="122.00" arrival="325.00" arrivalLane="E3_0" arrivalPos="90.46" arrivalSpeed="32.98" duration="101.00" routeLength="1314.99" waitingTime="0.00" waitingCount="0" stopTime="0.00" timeLoss="26.90" rerouteNo="0" devices="tripinfo_99" vType="DEFAULT_VEHTYPE" speedFactor="1.12" vaporized=""/>
    <tripinfo id="101" depart="230.00" departLane="E0_0" departPos="5.10" departSpeed="5.77" departDelay="126.00" arrival="327.00" arrivalLane="E3_0" arrivalPos="90.46" arrivalSpeed="29.95" duration="97.00" routeLength="1314.99" waitingTime="0.00" waitingCount="0" stopTime="0.00" timeLoss="17.56" rerouteNo="0" devices="tripinfo_101" vType="DEFAULT_VEHTYPE" speedFactor="1.03" vaporized=""/>