<?xml version="1.0" encoding="UTF-8"?>

<!-- generated on 2023-04-30 15:29:57 by Eclipse SUMO sumo Version 1.16.0
<configuration xmlns:xsi="http://www.w3.org/2001/XMLSchema-instance" xsi:noNamespaceSchemaLocation="http://sumo.dlr.de/xsd/sumoConfiguration.xsd">

    <input>
        <net-file value="C:\Users\Local_Man\Desktop\Stolen%20Music\school%20stuff%20for%20college\Semester%2015%20(UH%20Graduate%20School)\COSC%206364%20Nikolaos\SUMO_Project\COSC6364_Project\configurations\maps\Random_English.net.xml"/>
        <route-files value="./configurations/Rounds/Random_English.net.xml-small_test_R-0/Macroscopic_DUE/002/Trips_File_002.rou.xml"/>
    </input>

    <output>
        <summary-output value="./configurations/Rounds/Random_English.net.xml-small_test_R-0/Macroscopic_DUE/002/summary.xml"/>
        <tripinfo-output value="./configurations/Rounds/Random_English.net.xml-small_test_R-0/Macroscopic_DUE/002/trips.trips.xml"/>
        <statistic-output value="./configurations/Rounds/Random_English.net.xml-small_test_R-0/Macroscopic_DUE/002/stats_output.xml"/>
    </output>

    <time>
        <begin value="0"/>
    </time>

    <report>
        <log value="./configurations/Rounds/Random_English.net.xml-small_test_R-0/Macroscopic_DUE/002/log.sumo.log"/>
        <no-step-log value="true"/>
    </report>

    <gui_only>
        <quit-on-end value="true"/>
    </gui_only>

</configuration>
-->

<tripinfos xmlns:xsi="http://www.w3.org/2001/XMLSchema-instance" xsi:noNamespaceSchemaLocation="http://sumo.dlr.de/xsd/tripinfo_file.xsd">
    <tripinfo id="33" depart="40.00" departLane="9_0" departPos="5.10" departSpeed="14.42" departDelay="0.00" arrival="70.00" arrivalLane="19_0" arrivalPos="168.49" arrivalSpeed="13.46" duration="30.00" routeLength="376.28" waitingTime="0.00" waitingCount="0" stopTime="0.00" timeLoss="2.97" rerouteNo="0" devices="tripinfo_33" vType="DEFAULT_VEHTYPE" speedFactor="1.04" vaporized=""/>
    <tripinfo id="9" depart="7.00" departLane="-381_0" departPos="5.10" departSpeed="14.13" departDelay="0.00" arrival="73.00" arrivalLane="-7_1" arrivalPos="182.56" arrivalSpeed="13.93" duration="66.00" routeLength="782.88" waitingTime="0.00" waitingCount="0" stopTime="0.00" timeLoss="8.63" rerouteNo="0" devices="tripinfo_9" vType="DEFAULT_VEHTYPE" speedFactor="1.02" vaporized=""/>
    <tripinfo id="2" depart="0.00" departLane="13_0" departPos="5.10" departSpeed="15.04" departDelay="0.00" arrival="77.00" arrivalLane="-492_0" arrivalPos="209.16" arrivalSpeed="14.11" duration="77.00" routeLength="1030.55" waitingTime="0.00" waitingCount="0" stopTime="0.00" timeLoss="7.89" rerouteNo="0" devices="tripinfo_2" vType="DEFAULT_VEHTYPE" speedFactor="1.08" vaporized=""/>
    <tripinfo id="37" depart="44.00" departLane="-2110_0" departPos="5.10" departSpeed="12.51" departDelay="0.00" arrival="98.00" arrivalLane="1891_2" arrivalPos="195.19" arrivalSpeed="11.24" duration="54.00" routeLength="574.28" waitingTime="0.00" waitingCount="0" stopTime="0.00" timeLoss="6.54" rerouteNo="0" devices="tripinfo_37" vType="DEFAULT_VEHTYPE" speedFactor="0.90" vaporized=""/>
    <tripinfo id="3" depart="0.00" departLane="-1930_0" departPos="5.10" departSpeed="13.55" departDelay="0.00" arrival="102.00" arrivalLane="-2494_0" arrivalPos="131.51" arrivalSpeed="13.34" duration="102.00" routeLength="1136.27" waitingTime="0.00" waitingCount="0" stopTime="0.00" timeLoss="15.60" rerouteNo="0" devices="tripinfo_3" vType="DEFAULT_VEHTYPE" speedFactor="0.98" vaporized=""/>
    <tripinfo id="31" depart="37.00" departLane="-1950_0" departPos="5.10" departSpeed="15.31" departDelay="0.00" arrival="105.00" arrivalLane="-1523_1" arrivalPos="145.77" arrivalSpeed="15.24" duration="68.00" routeLength="868.58" waitingTime="0.00" waitingCount="0" stopTime="0.00" timeLoss="10.32" rerouteNo="0" devices="tripinfo_31" vType="DEFAULT_VEHTYPE" speedFactor="1.10" vaporized=""/>
    <tripinfo id="29" depart="33.00" departLane="-1011_0" departPos="5.10" departSpeed="13.45" departDelay="0.00" arrival="109.00" arrivalLane="4681_0" arrivalPos="98.29" arrivalSpeed="12.62" duration="76.00" routeLength="904.47" waitingTime="0.00" waitingCount="0" stopTime="0.00" timeLoss="6.19" rerouteNo="0" devices="tripinfo_29" vType="DEFAULT_VEHTYPE" speedFactor="0.97" vaporized=""/>
    <tripinfo id="40" depart="45.00" departLane="-1532_0" departPos="5.10" departSpeed="12.18" departDelay="0.00" arrival="115.00" arrivalLane="-1447_1" arrivalPos="198.33" arrivalSpeed="12.17" duration="70.00" routeLength="733.60" waitingTime="0.00" waitingCount="0" stopTime="0.00" timeLoss="7.65" rerouteNo="0" devices="tripinfo_40" vType="DEFAULT_VEHTYPE" speedFactor="0.88" vaporized=""/>
    <tripinfo id="32" depart="38.00" departLane="-4501_0" departPos="5.10" departSpeed="11.60" departDelay="0.00" arrival="118.00" arrivalLane="2969_0" arrivalPos="107.25" arrivalSpeed="10.69" duration="80.00" routeLength="819.81" waitingTime="0.00" waitingCount="0" stopTime="0.00" timeLoss="8.34" rerouteNo="0" devices="tripinfo_32" vType="DEFAULT_VEHTYPE" speedFactor="0.83" vaporized=""/>
    <tripinfo id="87" depart="97.00" departLane="-2486_0" departPos="5.10" departSpeed="15.23" departDelay="0.00" arrival="123.00" arrivalLane="2486_2" arrivalPos="147.22" arrivalSpeed="14.44" duration="26.00" routeLength="294.01" waitingTime="0.00" waitingCount="0" stopTime="0.00" timeLoss="5.39" rerouteNo="0" devices="tripinfo_87" vType="DEFAULT_VEHTYPE" speedFactor="1.10" vaporized=""/>
    <tripinfo id="46" depart="50.00" departLane="3800_0" departPos="5.10" departSpeed="14.22" departDelay="0.00" arrival="125.00" arrivalLane="3122_0" arrivalPos="196.86" arrivalSpeed="13.18" duration="75.00" routeLength="858.96" waitingTime="0.00" waitingCount="0" stopTime="0.00" timeLoss="11.54" rerouteNo="0" devices="tripinfo_46" vType="DEFAULT_VEHTYPE" speedFactor="1.02" vaporized=""/>
    <tripinfo id="59" depart="63.00" departLane="-125_0" departPos="5.10" departSpeed="14.34" departDelay="0.00" arrival="130.00" arrivalLane="696_0" arrivalPos="91.80" arrivalSpeed="14.08" duration="67.00" routeLength="835.24" waitingTime="0.00" waitingCount="0" stopTime="0.00" timeLoss="7.21" rerouteNo="0" devices="tripinfo_59" vType="DEFAULT_VEHTYPE" speedFactor="1.03" vaporized=""/>
    <tripinfo id="64" depart="73.00" departLane="-2423_1" departPos="5.10" departSpeed="15.03" departDelay="0.00" arrival="135.00" arrivalLane="4469_0" arrivalPos="124.25" arrivalSpeed="14.94" duration="62.00" routeLength="718.30" waitingTime="0.00" waitingCount="0" stopTime="0.00" timeLoss="12.97" rerouteNo="0" devices="tripinfo_64" vType="DEFAULT_VEHTYPE" speedFactor="1.08" vaporized=""/>
    <tripinfo id="56" depart="60.00" departLane="-2881_0" departPos="5.10" departSpeed="12.89" departDelay="0.00" arrival="136.00" arrivalLane="618_1" arrivalPos="129.97" arrivalSpeed="11.68" duration="76.00" routeLength="851.17" waitingTime="0.00" waitingCount="0" stopTime="0.00" timeLoss="6.94" rerouteNo="0" devices="tripinfo_56" vType="DEFAULT_VEHTYPE" speedFactor="0.93" vaporized=""/>
    <tripinfo id="5" depart="4.00" departLane="-1483_0" departPos="5.10" departSpeed="14.53" departDelay="0.00" arrival="140.00" arrivalLane="728_1" arrivalPos="95.50" arrivalSpeed="14.51" duration="136.00" routeLength="1694.33" waitingTime="0.00" waitingCount="0" stopTime="0.00" timeLoss="18.15" rerouteNo="0" devices="tripinfo_5" vType="DEFAULT_VEHTYPE" speedFactor="1.05" vaporized=""/>
    <tripinfo id="11" depart="12.00" departLane="-7_0" departPos="5.10" departSpeed="15.60" departDelay="0.00" arrival="142.00" arrivalLane="-3737_1" arrivalPos="132.83" arrivalSpeed="14.82" duration="130.00" routeLength="1593.91" waitingTime="0.00" waitingCount="0" stopTime="0.00" timeLoss="24.05" rerouteNo="0" devices="tripinfo_11" vType="DEFAULT_VEHTYPE" speedFactor="1.12" vaporized=""/>
    <tripinfo id="52" depart="54.00" departLane="-333_0" departPos="5.10" departSpeed="13.33" departDelay="0.00" arrival="143.00" arrivalLane="326_0" arrivalPos="111.07" arrivalSpeed="12.59" duration="89.00" routeLength="1001.71" waitingTime="0.00" waitingCount="0" stopTime="0.00" timeLoss="11.65" rerouteNo="0" devices="tripinfo_52" vType="DEFAULT_VEHTYPE" speedFactor="0.96" vaporized=""/>
    <tripinfo id="18" depart="20.00" departLane="-3252_0" departPos="5.10" departSpeed="14.29" departDelay="0.00" arrival="144.00" arrivalLane="356_1" arrivalPos="141.22" arrivalSpeed="13.39" duration="124.00" routeLength="1401.42" waitingTime="2.00" waitingCount="1" stopTime="0.00" timeLoss="21.26" rerouteNo="0" devices="tripinfo_18" vType="DEFAULT_VEHTYPE" speedFactor="1.03" vaporized=""/>
    <tripinfo id="82" depart="91.00" departLane="-505_0" departPos="5.10" departSpeed="13.58" departDelay="0.00" arrival="144.00" arrivalLane="-19_1" arrivalPos="168.49" arrivalSpeed="12.30" duration="53.00" routeLength="634.60" waitingTime="0.00" waitingCount="0" stopTime="0.00" timeLoss="4.80" rerouteNo="0" devices="tripinfo_82" vType="DEFAULT_VEHTYPE" speedFactor="0.98" vaporized=""/>
    <tripinfo id="6" depart="4.00" departLane="1798_0" departPos="5.10" departSpeed="14.97" departDelay="0.00" arrival="145.00" arrivalLane="17_1" arrivalPos="197.12" arrivalSpeed="14.13" duration="141.00" routeLength="1773.10" waitingTime="0.00" waitingCount="0" stopTime="0.00" timeLoss="19.82" rerouteNo="0" devices="tripinfo_6" vType="DEFAULT_VEHTYPE" speedFactor="1.08" vaporized=""/>
    <tripinfo id="68" depart="80.00" departLane="-17_0" departPos="5.10" departSpeed="13.09" departDelay="0.00" arrival="149.00" arrivalLane="325_1" arrivalPos="128.61" arrivalSpeed="11.95" duration="69.00" routeLength="746.47" waitingTime="0.00" waitingCount="0" stopTime="0.00" timeLoss="10.08" rerouteNo="0" devices="tripinfo_68" vType="DEFAULT_VEHTYPE" speedFactor="0.94" vaporized=""/>
    <tripinfo id="14" depart="14.00" departLane="-4473_0" departPos="5.10" departSpeed="14.47" departDelay="0.00" arrival="153.00" arrivalLane="-4256_0" arrivalPos="208.50" arrivalSpeed="13.24" duration="139.00" routeLength="1788.82" waitingTime="0.00" waitingCount="0" stopTime="0.00" timeLoss="11.18" rerouteNo="0" devices="tripinfo_14" vType="DEFAULT_VEHTYPE" speedFactor="1.04" vaporized=""/>
    <tripinfo id="42" depart="48.00" departLane="-639_0" departPos="5.10" departSpeed="13.93" departDelay="0.00" arrival="153.00" arrivalLane="-125_1" arrivalPos="161.85" arrivalSpeed="13.30" duration="105.00" routeLength="1249.20" waitingTime="0.00" waitingCount="0" stopTime="0.00" timeLoss="14.58" rerouteNo="0" devices="tripinfo_42" vType="DEFAULT_VEHTYPE" speedFactor="1.00" vaporized=""/>
    <tripinfo id="36" depart="41.00" departLane="1526_0" departPos="5.10" departSpeed="10.70" departDelay="0.00" arrival="154.00" arrivalLane="-3885_0" arrivalPos="166.30" arrivalSpeed="9.48" duration="113.00" routeLength="1050.12" waitingTime="0.00" waitingCount="0" stopTime="0.00" timeLoss="12.78" rerouteNo="0" devices="tripinfo_36" vType="DEFAULT_VEHTYPE" speedFactor="0.77" vaporized=""/>
    <tripinfo id="4" depart="3.00" departLane="-730_0" departPos="5.10" departSpeed="16.67" departDelay="0.00" arrival="158.00" arrivalLane="-2439_0" arrivalPos="95.18" arrivalSpeed="15.85" duration="155.00" routeLength="1977.28" waitingTime="1.00" waitingCount="1" stopTime="0.00" timeLoss="33.96" rerouteNo="0" devices="tripinfo_4" vType="DEFAULT_VEHTYPE" speedFactor="1.20" vaporized=""/>
    <tripinfo id="12" depart="13.00" departLane="-1773_0" departPos="5.10" departSpeed="12.51" departDelay="0.00" arrival="159.00" arrivalLane="840_0" arrivalPos="230.55" arrivalSpeed="12.04" duration="146.00" routeLength="1602.03" waitingTime="0.00" waitingCount="0" stopTime="0.00" timeLoss="15.30" rerouteNo="0" devices="tripinfo_12" vType="DEFAULT_VEHTYPE" speedFactor="0.90" vaporized=""/>
    <tripinfo id="15" depart="14.00" departLane="1882_0" departPos="5.10" departSpeed="13.00" departDelay="0.00" arrival="164.00" arrivalLane="-2209_2" arrivalPos="109.90" arrivalSpeed="12.57" duration="150.00" routeLength="1660.98" waitingTime="0.00" waitingCount="0" stopTime="0.00" timeLoss="18.94" rerouteNo="0" devices="tripinfo_15" vType="DEFAULT_VEHTYPE" speedFactor="0.94" vaporized=""/>
    <tripinfo id="24" depart="30.00" departLane="-840_0" departPos="5.10" departSpeed="16.03" departDelay="0.00" arrival="167.00" arrivalLane="344_1" arrivalPos="107.02" arrivalSpeed="15.81" duration="137.00" routeLength="1777.70" waitingTime="3.00" waitingCount="1" stopTime="0.00" timeLoss="25.76" rerouteNo="0" devices="tripinfo_24" vType="DEFAULT_VEHTYPE" speedFactor="1.15" vaporized=""/>
    <tripinfo id="8" depart="7.00" departLane="-639_0" departPos="5.10" departSpeed="15.15" departDelay="0.00" arrival="168.00" arrivalLane="-3093_1" arrivalPos="91.76" arrivalSpeed="14.62" duration="161.00" routeLength="2041.50" waitingTime="1.00" waitingCount="1" stopTime="0.00" timeLoss="23.26" rerouteNo="0" devices="tripinfo_8" vType="DEFAULT_VEHTYPE" speedFactor="1.09" vaporized=""/>
    <tripinfo id="43" depart="48.00" departLane="-4681_0" departPos="5.10" departSpeed="14.56" departDelay="0.00" arrival="168.00" arrivalLane="496_1" arrivalPos="110.95" arrivalSpeed="13.91" duration="120.00" routeLength="1353.67" waitingTime="5.00" waitingCount="1" stopTime="0.00" timeLoss="24.94" rerouteNo="0" devices="tripinfo_43" vType="DEFAULT_VEHTYPE" speedFactor="1.05" vaporized=""/>
    <tripinfo id="30" depart="34.00" departLane="-2278_0" departPos="5.10" departSpeed="13.06" departDelay="0.00" arrival="175.00" arrivalLane="-2285_2" arrivalPos="115.28" arrivalSpeed="12.36" duration="141.00" routeLength="1430.91" waitingTime="9.00" waitingCount="1" stopTime="0.00" timeLoss="29.46" rerouteNo="0" devices="tripinfo_30" vType="DEFAULT_VEHTYPE" speedFactor="0.94" vaporized=""/>
    <tripinfo id="50" depart="53.00" departLane="330_0" departPos="5.10" departSpeed="13.86" departDelay="0.00" arrival="175.00" arrivalLane="125_0" arrivalPos="161.85" arrivalSpeed="12.87" duration="122.00" routeLength="1325.60" waitingTime="5.00" waitingCount="1" stopTime="0.00" timeLoss="24.74" rerouteNo="0" devices="tripinfo_50" vType="DEFAULT_VEHTYPE" speedFactor="1.00" vaporized=""/>
    <tripinfo id="47" depart="50.00" departLane="-642_1" departPos="5.10" departSpeed="13.36" departDelay="0.00" arrival="177.00" arrivalLane="-623_0" arrivalPos="149.71" arrivalSpeed="12.33" duration="127.00" routeLength="1353.41" waitingTime="1.00" waitingCount="1" stopTime="0.00" timeLoss="21.86" rerouteNo="0" devices="tripinfo_47" vType="DEFAULT_VEHTYPE" speedFactor="0.96" vaporized=""/>
    <tripinfo id="129" depart="131.00" departLane="3734_0" departPos="5.10" departSpeed="12.06" departDelay="0.00" arrival="178.00" arrivalLane="-3734_1" arrivalPos="234.48" arrivalSpeed="11.20" duration="47.00" routeLength="468.53" waitingTime="0.00" waitingCount="0" stopTime="0.00" timeLoss="6.36" rerouteNo="0" devices="tripinfo_129" vType="DEFAULT_VEHTYPE" speedFactor="0.87" vaporized=""/>
    <tripinfo id="48" depart="51.00" departLane="7_0" departPos="5.10" departSpeed="13.85" departDelay="0.00" arrival="179.00" arrivalLane="1057_1" arrivalPos="215.42" arrivalSpeed="12.66" duration="128.00" routeLength="1492.41" waitingTime="4.00" waitingCount="1" stopTime="0.00" timeLoss="17.93" rerouteNo="0" devices="tripinfo_48" vType="DEFAULT_VEHTYPE" speedFactor="1.00" vaporized=""/>
    <tripinfo id="73" depart="86.00" departLane="730_0" departPos="5.10" departSpeed="15.89" departDelay="0.00" arrival="180.00" arrivalLane="2112_0" arrivalPos="174.54" arrivalSpeed="15.52" duration="94.00" routeLength="1299.79" waitingTime="0.00" waitingCount="0" stopTime="0.00" timeLoss="11.55" rerouteNo="0" devices="tripinfo_73" vType="DEFAULT_VEHTYPE" speedFactor="1.14" vaporized=""/>
    <tripinfo id="25" depart="30.00" departLane="1425_0" departPos="5.10" departSpeed="15.58" departDelay="0.00" arrival="181.00" arrivalLane="-128_0" arrivalPos="78.64" arrivalSpeed="15.54" duration="151.00" routeLength="1676.17" waitingTime="16.00" waitingCount="1" stopTime="0.00" timeLoss="41.03" rerouteNo="0" devices="tripinfo_25" vType="DEFAULT_VEHTYPE" speedFactor="1.12" vaporized=""/>
    <tripinfo id="57" depart="61.00" departLane="344_0" departPos="5.10" departSpeed="14.66" departDelay="0.00" arrival="182.00" arrivalLane="-2291_1" arrivalPos="125.77" arrivalSpeed="13.77" duration="121.00" routeLength="1374.22" waitingTime="1.00" waitingCount="1" stopTime="0.00" timeLoss="24.01" rerouteNo="0" devices="tripinfo_57" vType="DEFAULT_VEHTYPE" speedFactor="1.06" vaporized=""/>
    <tripinfo id="86" depart="94.00" departLane="313_0" departPos="5.10" departSpeed="14.18" departDelay="0.00" arrival="185.00" arrivalLane="-210_2" arrivalPos="104.02" arrivalSpeed="13.99" duration="91.00" routeLength="969.03" waitingTime="4.00" waitingCount="1" stopTime="0.00" timeLoss="20.51" rerouteNo="0" devices="tripinfo_86" vType="DEFAULT_VEHTYPE" speedFactor="1.02" vaporized=""/>
    <tripinfo id="26" depart="30.00" departLane="-1941_0" departPos="5.10" departSpeed="12.42" departDelay="0.00" arrival="187.00" arrivalLane="-3328_0" arrivalPos="110.08" arrivalSpeed="11.81" duration="157.00" routeLength="1636.16" waitingTime="0.00" waitingCount="0" stopTime="0.00" timeLoss="18.99" rerouteNo="0" devices="tripinfo_26" vType="DEFAULT_VEHTYPE" speedFactor="0.89" vaporized=""/>
    <tripinfo id="118" depart="123.00" departLane="3252_0" departPos="5.10" departSpeed="16.38" departDelay="0.00" arrival="188.00" arrivalLane="-1093_0" arrivalPos="135.09" arrivalSpeed="16.09" duration="65.00" routeLength="847.19" waitingTime="0.00" waitingCount="0" stopTime="0.00" timeLoss="9.71" rerouteNo="0" devices="tripinfo_118" vType="DEFAULT_VEHTYPE" speedFactor="1.18" vaporized=""/>
    <tripinfo id="119" depart="123.00" departLane="-3252_0" departPos="5.10" departSpeed="14.88" departDelay="0.00" arrival="189.00" arrivalLane="-674_1" arrivalPos="168.57" arrivalSpeed="14.50" duration="66.00" routeLength="815.67" waitingTime="0.00" waitingCount="0" stopTime="0.00" timeLoss="8.58" rerouteNo="0" devices="tripinfo_119" vType="DEFAULT_VEHTYPE" speedFactor="1.07" vaporized=""/>
    <tripinfo id="65" depart="74.00" departLane="-330_0" departPos="5.10" departSpeed="13.56" departDelay="0.00" arrival="191.00" arrivalLane="-3435_1" arrivalPos="118.76" arrivalSpeed="12.97" duration="117.00" routeLength="1422.43" waitingTime="0.00" waitingCount="0" stopTime="0.00" timeLoss="11.08" rerouteNo="0" devices="tripinfo_65" vType="DEFAULT_VEHTYPE" speedFactor="0.98" vaporized=""/>
    <tripinfo id="78" depart="87.00" departLane="-1882_0" departPos="5.10" departSpeed="13.45" departDelay="0.00" arrival="191.00" arrivalLane="3800_1" arrivalPos="177.06" arrivalSpeed="12.60" duration="104.00" routeLength="1245.21" waitingTime="0.00" waitingCount="0" stopTime="0.00" timeLoss="9.92" rerouteNo="0" devices="tripinfo_78" vType="DEFAULT_VEHTYPE" speedFactor="0.97" vaporized=""/>
    <tripinfo id="49" depart="52.00" departLane="2166_0" departPos="5.10" departSpeed="15.55" departDelay="0.00" arrival="193.00" arrivalLane="650_0" arrivalPos="184.52" arrivalSpeed="14.82" duration="141.00" routeLength="1817.53" waitingTime="3.00" waitingCount="1" stopTime="0.00" timeLoss="22.51" rerouteNo="0" devices="tripinfo_49" vType="DEFAULT_VEHTYPE" speedFactor="1.12" vaporized=""/>
    <tripinfo id="96" depart="107.00" departLane="3734_0" departPos="5.10" departSpeed="12.29" departDelay="0.00" arrival="193.00" arrivalLane="-1391_1" arrivalPos="132.18" arrivalSpeed="12.04" duration="86.00" routeLength="885.12" waitingTime="0.00" waitingCount="0" stopTime="0.00" timeLoss="11.55" rerouteNo="0" devices="tripinfo_96" vType="DEFAULT_VEHTYPE" speedFactor="0.89" vaporized=""/>
    <tripinfo id="67" depart="79.00" departLane="517_0" departPos="5.10" departSpeed="13.99" departDelay="0.00" arrival="195.00" arrivalLane="-2447_2" arrivalPos="137.51" arrivalSpeed="13.28" duration="116.00" routeLength="1383.21" waitingTime="0.00" waitingCount="0" stopTime="0.00" timeLoss="13.62" rerouteNo="0" devices="tripinfo_67" vType="DEFAULT_VEHTYPE" speedFactor="1.01" vaporized=""/>
    <tripinfo id="63" depart="70.00" departLane="-650_0" departPos="5.10" departSpeed="14.12" departDelay="0.00" arrival="197.00" arrivalLane="-1029_2" arrivalPos="141.57" arrivalSpeed="13.74" duration="127.00" routeLength="1535.00" waitingTime="0.00" waitingCount="0" stopTime="0.00" timeLoss="15.16" rerouteNo="0" devices="tripinfo_63" vType="DEFAULT_VEHTYPE" speedFactor="1.02" vaporized=""/>
    <tripinfo id="17" depart="19.00" departLane="3151_0" departPos="5.10" departSpeed="14.03" departDelay="0.00" arrival="204.00" arrivalLane="1930_0" arrivalPos="114.02" arrivalSpeed="13.65" duration="185.00" routeLength="2217.13" waitingTime="0.00" waitingCount="0" stopTime="0.00" timeLoss="25.20" rerouteNo="0" devices="tripinfo_17" vType="DEFAULT_VEHTYPE" speedFactor="1.01" vaporized=""/>
    <tripinfo id="80" depart="88.00" departLane="588_0" departPos="5.10" departSpeed="14.37" departDelay="0.00" arrival="206.00" arrivalLane="2278_2" arrivalPos="114.82" arrivalSpeed="13.19" duration="118.00" routeLength="1358.47" waitingTime="7.00" waitingCount="1" stopTime="0.00" timeLoss="21.39" rerouteNo="0" devices="tripinfo_80" vType="DEFAULT_VEHTYPE" speedFactor="1.03" vaporized=""/>
    <tripinfo id="89" depart="97.00" departLane="3497_0" departPos="5.10" departSpeed="13.48" departDelay="0.00" arrival="208.00" arrivalLane="11_1" arrivalPos="146.86" arrivalSpeed="13.06" duration="111.00" routeLength="1332.66" waitingTime="0.00" waitingCount="0" stopTime="0.00" timeLoss="10.42" rerouteNo="0" devices="tripinfo_89" vType="DEFAULT_VEHTYPE" speedFactor="0.97" vaporized=""/>
    <tripinfo id="109" depart="116.00" departLane="-2453_0" departPos="5.10" departSpeed="14.70" departDelay="0.00" arrival="210.00" arrivalLane="-1798_0" arrivalPos="161.79" arrivalSpeed="13.98" duration="94.00" routeLength="1185.36" waitingTime="0.00" waitingCount="0" stopTime="0.00" timeLoss="10.30" rerouteNo="0" devices="tripinfo_109" vType="DEFAULT_VEHTYPE" speedFactor="1.06" vaporized=""/>
    <tripinfo id="98" depart="109.00" departLane="332_0" departPos="5.10" departSpeed="15.53" departDelay="0.00" arrival="211.00" arrivalLane="732_0" arrivalPos="137.52" arrivalSpeed="4.87" duration="102.00" routeLength="821.98" waitingTime="19.00" waitingCount="4" stopTime="0.00" timeLoss="47.03" rerouteNo="0" devices="tripinfo_98" vType="DEFAULT_VEHTYPE" speedFactor="1.12" vaporized=""/>
    <tripinfo id="114" depart="123.00" departLane="-1345_0" departPos="5.10" departSpeed="7.76" departDelay="2.00" arrival="212.00" arrivalLane="1027_1" arrivalPos="193.01" arrivalSpeed="12.73" duration="89.00" routeLength="1014.65" waitingTime="0.00" waitingCount="0" stopTime="0.00" timeLoss="11.50" rerouteNo="0" devices="tripinfo_114" vType="DEFAULT_VEHTYPE" speedFactor="0.97" vaporized=""/>
    <tripinfo id="113" depart="120.00" departLane="-2202_0" departPos="5.10" departSpeed="12.32" departDelay="0.00" arrival="214.00" arrivalLane="3883_2" arrivalPos="165.60" arrivalSpeed="11.11" duration="94.00" routeLength="975.63" waitingTime="0.00" waitingCount="0" stopTime="0.00" timeLoss="11.93" rerouteNo="0" devices="tripinfo_113" vType="DEFAULT_VEHTYPE" speedFactor="0.89" vaporized=""/>
    <tripinfo id="38" depart="44.00" departLane="-4257_0" departPos="5.10" departSpeed="14.18" departDelay="0.00" arrival="215.00" arrivalLane="3497_0" arrivalPos="123.06" arrivalSpeed="13.61" duration="171.00" routeLength="2082.89" waitingTime="0.00" waitingCount="0" stopTime="0.00" timeLoss="21.27" rerouteNo="0" devices="tripinfo_38" vType="DEFAULT_VEHTYPE" speedFactor="1.02" vaporized=""/>
    <tripinfo id="16" depart="18.00" departLane="-3772_0" departPos="5.10" departSpeed="15.04" departDelay="0.00" arrival="219.00" arrivalLane="2449_0" arrivalPos="74.82" arrivalSpeed="14.43" duration="201.00" routeLength="2426.42" waitingTime="2.00" waitingCount="1" stopTime="0.00" timeLoss="35.04" rerouteNo="0" devices="tripinfo_16" vType="DEFAULT_VEHTYPE" speedFactor="1.08" vaporized=""/>
    <tripinfo id="23" depart="29.00" departLane="-3779_0" departPos="5.10" departSpeed="15.72" departDelay="0.00" arrival="219.00" arrivalLane="523_0" arrivalPos="187.13" arrivalSpeed="15.40" duration="190.00" routeLength="2409.09" waitingTime="2.00" waitingCount="1" stopTime="0.00" timeLoss="33.71" rerouteNo="0" devices="tripinfo_23" vType="DEFAULT_VEHTYPE" speedFactor="1.13" vaporized=""/>
    <tripinfo id="28" depart="33.00" departLane="-2112_0" departPos="5.10" departSpeed="14.16" departDelay="0.00" arrival="219.00" arrivalLane="840_0" arrivalPos="230.55" arrivalSpeed="13.35" duration="186.00" routeLength="2323.27" waitingTime="0.00" waitingCount="0" stopTime="0.00" timeLoss="20.77" rerouteNo="0" devices="tripinfo_28" vType="DEFAULT_VEHTYPE" speedFactor="1.02" vaporized=""/>
    <tripinfo id="44" depart="49.00" departLane="-650_0" departPos="5.10" departSpeed="12.49" departDelay="0.00" arrival="220.00" arrivalLane="2168_0" arrivalPos="206.52" arrivalSpeed="11.64" duration="171.00" routeLength="1823.93" waitingTime="3.00" waitingCount="1" stopTime="0.00" timeLoss="24.50" rerouteNo="0" devices="tripinfo_44" vType="DEFAULT_VEHTYPE" speedFactor="0.90" vaporized=""/>
    <tripinfo id="39" depart="45.00" departLane="1359_0" departPos="5.10" departSpeed="14.77" departDelay="0.00" arrival="225.00" arrivalLane="-577_1" arrivalPos="184.87" arrivalSpeed="14.09" duration="180.00" routeLength="2058.70" waitingTime="11.00" waitingCount="1" stopTime="0.00" timeLoss="39.59" rerouteNo="0" devices="tripinfo_39" vType="DEFAULT_VEHTYPE" speedFactor="1.06" vaporized=""/>
    <tripinfo id="45" depart="49.00" departLane="-1950_0" departPos="5.10" departSpeed="15.29" departDelay="0.00" arrival="227.00" arrivalLane="-3159_0" arrivalPos="102.22" arrivalSpeed="14.40" duration="178.00" routeLength="2279.75" waitingTime="0.00" waitingCount="0" stopTime="0.00" timeLoss="26.15" rerouteNo="0" devices="tripinfo_45" vType="DEFAULT_VEHTYPE" speedFactor="1.10" vaporized=""/>
    <tripinfo id="166" depart="169.00" departLane="210_0" departPos="5.10" departSpeed="14.87" departDelay="0.00" arrival="228.00" arrivalLane="-608_1" arrivalPos="156.63" arrivalSpeed="14.54" duration="59.00" routeLength="796.62" waitingTime="0.00" waitingCount="0" stopTime="0.00" timeLoss="4.36" rerouteNo="0" devices="tripinfo_166" vType="DEFAULT_VEHTYPE" speedFactor="1.07" vaporized=""/>
    <tripinfo id="174" depart="178.00" departLane="-1373_0" departPos="5.10" departSpeed="15.41" departDelay="0.00" arrival="230.00" arrivalLane="1517_2" arrivalPos="144.73" arrivalSpeed="14.93" duration="52.00" routeLength="648.30" waitingTime="0.00" waitingCount="0" stopTime="0.00" timeLoss="7.33" rerouteNo="0" devices="tripinfo_174" vType="DEFAULT_VEHTYPE" speedFactor="1.11" vaporized=""/>
    <tripinfo id="157" depart="159.00" departLane="-2201_0" departPos="5.10" departSpeed="13.63" departDelay="0.00" arrival="235.00" arrivalLane="1767_1" arrivalPos="203.37" arrivalSpeed="13.22" duration="76.00" routeLength="924.25" waitingTime="0.00" waitingCount="0" stopTime="0.00" timeLoss="7.58" rerouteNo="0" devices="tripinfo_157" vType="DEFAULT_VEHTYPE" speedFactor="0.98" vaporized=""/>
    <tripinfo id="164" depart="166.00" departLane="-2202_0" departPos="5.10" departSpeed="13.38" departDelay="0.00" arrival="235.00" arrivalLane="-3885_0" arrivalPos="166.30" arrivalSpeed="12.98" duration="69.00" routeLength="809.64" waitingTime="0.00" waitingCount="0" stopTime="0.00" timeLoss="7.20" rerouteNo="0" devices="tripinfo_164" vType="DEFAULT_VEHTYPE" speedFactor="0.96" vaporized=""/>
    <tripinfo id="172" depart="177.00" departLane="-128_0" departPos="5.10" departSpeed="14.53" departDelay="0.00" arrival="235.00" arrivalLane="-579_1" arrivalPos="154.31" arrivalSpeed="14.52" duration="58.00" routeLength="652.39" waitingTime="0.00" waitingCount="0" stopTime="0.00" timeLoss="12.00" rerouteNo="0" devices="tripinfo_172" vType="DEFAULT_VEHTYPE" speedFactor="1.09" vaporized=""/>
    <tripinfo id="141" depart="143.00" departLane="-3145_0" departPos="5.10" departSpeed="13.08" departDelay="0.00" arrival="240.00" arrivalLane="2188_2" arrivalPos="116.46" arrivalSpeed="11.80" duration="97.00" routeLength="1125.68" waitingTime="0.00" waitingCount="0" stopTime="0.00" timeLoss="9.12" rerouteNo="0" devices="tripinfo_141" vType="DEFAULT_VEHTYPE" speedFactor="0.94" vaporized=""/>
    <tripinfo id="103" depart="111.00" departLane="-1396_0" departPos="5.10" departSpeed="14.41" departDelay="0.00" arrival="241.00" arrivalLane="-125_0" arrivalPos="161.85" arrivalSpeed="13.77" duration="130.00" routeLength="1578.02" waitingTime="0.00" waitingCount="0" stopTime="0.00" timeLoss="17.17" rerouteNo="0" devices="tripinfo_103" vType="DEFAULT_VEHTYPE" speedFactor="1.04" vaporized=""/>
    <tripinfo id="27" depart="31.00" departLane="379_0" departPos="5.10" departSpeed="13.82" departDelay="0.00" arrival="242.00" arrivalLane="-3779_0" arrivalPos="195.40" arrivalSpeed="13.02" duration="211.00" routeLength="2540.41" waitingTime="0.00" waitingCount="0" stopTime="0.00" timeLoss="24.34" rerouteNo="0" devices="tripinfo_27" vType="DEFAULT_VEHTYPE" speedFactor="0.99" vaporized=""/>
    <tripinfo id="125" depart="127.00" departLane="-121_0" departPos="5.10" departSpeed="15.65" departDelay="0.00" arrival="242.00" arrivalLane="880_0" arrivalPos="200.29" arrivalSpeed="15.30" duration="115.00" routeLength="1324.47" waitingTime="8.00" waitingCount="1" stopTime="0.00" timeLoss="29.46" rerouteNo="0" devices="tripinfo_125" vType="DEFAULT_VEHTYPE" speedFactor="1.13" vaporized=""/>
    <tripinfo id="120" depart="124.00" departLane="338_0" departPos="5.10" departSpeed="13.98" departDelay="0.00" arrival="243.00" arrivalLane="3603_0" arrivalPos="147.90" arrivalSpeed="12.77" duration="119.00" routeLength="1449.80" waitingTime="0.00" waitingCount="0" stopTime="0.00" timeLoss="13.59" rerouteNo="0" devices="tripinfo_120" vType="DEFAULT_VEHTYPE" speedFactor="1.01" vaporized=""/>