<?xml version="1.0" encoding="UTF-8"?>

<!-- generated on 2023-04-28 15:48:10 by Eclipse SUMO sumo Version 1.16.0
<configuration xmlns:xsi="http://www.w3.org/2001/XMLSchema-instance" xsi:noNamespaceSchemaLocation="http://sumo.dlr.de/xsd/sumoConfiguration.xsd">

    <input>
        <net-file value="022/../configurations/maps/Random_English.net.xml"/>
        <route-files value="022/Trips_File_022.rou.xml"/>
        <additional-files value="022/../edgedata.add.xml"/>
    </input>

    <output>
        <output-prefix value="022/"/>
        <summary-output value="022/../summary_022.xml"/>
        <tripinfo-output value="022/../tripinfo_022.xml"/>
    </output>

    <time>
        <begin value="0"/>
    </time>

    <processing>
        <route-steps value="200"/>
        <no-internal-links value="False"/>
        <time-to-teleport value="300"/>
        <time-to-teleport.highways value="0"/>
        <eager-insert value="False"/>
    </processing>

    <report>
        <verbose value="true"/>
        <no-warnings value="False"/>
        <log value="022/../iteration_022.sumo.log"/>
        <no-step-log value="true"/>
    </report>

    <mesoscopic>
        <mesosim value="true"/>
        <meso-recheck value="0"/>
    </mesoscopic>

    <random_number>
        <random value="False"/>
    </random_number>

</configuration>
-->

<tripinfos xmlns:xsi="http://www.w3.org/2001/XMLSchema-instance" xsi:noNamespaceSchemaLocation="http://sumo.dlr.de/xsd/tripinfo_file.xsd">
    <tripinfo id="11" depart="10.00" departLane="" departPos="0.00" departSpeed="11.90" departDelay="0.00" arrival="75.00" arrivalLane="" arrivalPos="129.97" arrivalSpeed="11.90" duration="65.00" routeLength="770.25" waitingTime="0.00" waitingCount="0" stopTime="0.00" timeLoss="0.00" rerouteNo="0" devices="tripinfo_11" vType="DEFAULT_VEHTYPE" speedFactor="0.86" vaporized=""/>
    <tripinfo id="9" depart="9.00" departLane="" departPos="0.00" departSpeed="12.31" departDelay="0.00" arrival="87.00" arrivalLane="" arrivalPos="166.17" arrivalSpeed="12.31" duration="78.00" routeLength="949.61" waitingTime="0.00" waitingCount="0" stopTime="0.00" timeLoss="0.00" rerouteNo="0" devices="tripinfo_9" vType="DEFAULT_VEHTYPE" speedFactor="0.89" vaporized=""/>
    <tripinfo id="32" depart="29.00" departLane="" departPos="0.00" departSpeed="16.37" departDelay="0.00" arrival="88.00" arrivalLane="" arrivalPos="109.37" arrivalSpeed="16.37" duration="59.00" routeLength="957.00" waitingTime="0.00" waitingCount="0" stopTime="0.00" timeLoss="0.00" rerouteNo="0" devices="tripinfo_32" vType="DEFAULT_VEHTYPE" speedFactor="1.18" vaporized=""/>
    <tripinfo id="54" depart="48.00" departLane="" departPos="0.00" departSpeed="14.12" departDelay="0.00" arrival="88.00" arrivalLane="" arrivalPos="107.93" arrivalSpeed="14.12" duration="40.00" routeLength="556.87" waitingTime="0.00" waitingCount="0" stopTime="0.00" timeLoss="0.00" rerouteNo="0" devices="tripinfo_54" vType="DEFAULT_VEHTYPE" speedFactor="1.02" vaporized=""/>
    <tripinfo id="69" depart="62.00" departLane="" departPos="0.00" departSpeed="12.70" departDelay="0.00" arrival="89.00" arrivalLane="" arrivalPos="164.65" arrivalSpeed="12.70" duration="27.00" routeLength="331.96" waitingTime="0.00" waitingCount="0" stopTime="0.00" timeLoss="0.00" rerouteNo="0" devices="tripinfo_69" vType="DEFAULT_VEHTYPE" speedFactor="0.91" vaporized=""/>
    <tripinfo id="8" depart="7.00" departLane="" departPos="0.00" departSpeed="14.53" departDelay="0.00" arrival="91.00" arrivalLane="" arrivalPos="121.76" arrivalSpeed="14.53" duration="84.00" routeLength="1207.91" waitingTime="0.00" waitingCount="0" stopTime="0.00" timeLoss="0.00" rerouteNo="0" devices="tripinfo_8" vType="DEFAULT_VEHTYPE" speedFactor="1.05" vaporized=""/>
    <tripinfo id="36" depart="33.00" departLane="" departPos="0.00" departSpeed="13.82" departDelay="0.00" arrival="91.00" arrivalLane="" arrivalPos="94.09" arrivalSpeed="13.82" duration="58.00" routeLength="799.51" waitingTime="0.00" waitingCount="0" stopTime="0.00" timeLoss="0.00" rerouteNo="0" devices="tripinfo_36" vType="DEFAULT_VEHTYPE" speedFactor="0.99" vaporized=""/>
    <tripinfo id="12" depart="11.00" departLane="" departPos="0.00" departSpeed="15.15" departDelay="0.00" arrival="94.00" arrivalLane="" arrivalPos="151.73" arrivalSpeed="15.15" duration="83.00" routeLength="1251.94" waitingTime="0.00" waitingCount="0" stopTime="0.00" timeLoss="0.00" rerouteNo="0" devices="tripinfo_12" vType="DEFAULT_VEHTYPE" speedFactor="1.09" vaporized=""/>
    <tripinfo id="34" depart="29.00" departLane="" departPos="0.00" departSpeed="13.96" departDelay="0.00" arrival="94.00" arrivalLane="" arrivalPos="127.45" arrivalSpeed="13.96" duration="65.00" routeLength="903.71" waitingTime="0.00" waitingCount="0" stopTime="0.00" timeLoss="0.00" rerouteNo="0" devices="tripinfo_34" vType="DEFAULT_VEHTYPE" speedFactor="1.01" vaporized=""/>
    <tripinfo id="4" depart="4.00" departLane="" departPos="0.00" departSpeed="14.03" departDelay="0.00" arrival="98.00" arrivalLane="" arrivalPos="209.64" arrivalSpeed="14.03" duration="94.00" routeLength="1310.32" waitingTime="0.00" waitingCount="0" stopTime="0.00" timeLoss="0.00" rerouteNo="0" devices="tripinfo_4" vType="DEFAULT_VEHTYPE" speedFactor="1.01" vaporized=""/>
    <tripinfo id="24" depart="23.00" departLane="" departPos="0.00" departSpeed="13.54" departDelay="0.00" arrival="98.00" arrivalLane="" arrivalPos="161.85" arrivalSpeed="13.54" duration="75.00" routeLength="1013.29" waitingTime="0.00" waitingCount="0" stopTime="0.00" timeLoss="0.00" rerouteNo="0" devices="tripinfo_24" vType="DEFAULT_VEHTYPE" speedFactor="0.97" vaporized=""/>
    <tripinfo id="10" depart="9.00" departLane="" departPos="0.00" departSpeed="13.03" departDelay="0.00" arrival="100.00" arrivalLane="" arrivalPos="102.22" arrivalSpeed="13.03" duration="91.00" routeLength="1179.58" waitingTime="0.00" waitingCount="0" stopTime="0.00" timeLoss="0.00" rerouteNo="0" devices="tripinfo_10" vType="DEFAULT_VEHTYPE" speedFactor="0.94" vaporized=""/>
    <tripinfo id="50" depart="44.00" departLane="" departPos="0.00" departSpeed="12.18" departDelay="0.00" arrival="100.00" arrivalLane="" arrivalPos="154.35" arrivalSpeed="12.18" duration="56.00" routeLength="675.05" waitingTime="0.00" waitingCount="0" stopTime="0.00" timeLoss="0.00" rerouteNo="0" devices="tripinfo_50" vType="DEFAULT_VEHTYPE" speedFactor="0.88" vaporized=""/>
    <tripinfo id="40" depart="36.00" departLane="" departPos="0.00" departSpeed="15.31" departDelay="0.00" arrival="101.00" arrivalLane="" arrivalPos="124.36" arrivalSpeed="15.31" duration="65.00" routeLength="980.33" waitingTime="0.00" waitingCount="0" stopTime="0.00" timeLoss="0.00" rerouteNo="0" devices="tripinfo_40" vType="DEFAULT_VEHTYPE" speedFactor="1.10" vaporized=""/>
    <tripinfo id="39" depart="35.00" departLane="" departPos="0.00" departSpeed="16.38" departDelay="0.00" arrival="103.00" arrivalLane="" arrivalPos="136.29" arrivalSpeed="16.39" duration="68.00" routeLength="1110.45" waitingTime="0.00" waitingCount="0" stopTime="0.00" timeLoss="0.00" rerouteNo="0" devices="tripinfo_39" vType="DEFAULT_VEHTYPE" speedFactor="1.18" vaporized=""/>
    <tripinfo id="60" depart="54.00" departLane="" departPos="0.00" departSpeed="14.22" departDelay="0.00" arrival="107.00" arrivalLane="" arrivalPos="103.15" arrivalSpeed="14.22" duration="53.00" routeLength="743.86" waitingTime="0.00" waitingCount="0" stopTime="0.00" timeLoss="0.00" rerouteNo="0" devices="tripinfo_60" vType="DEFAULT_VEHTYPE" speedFactor="1.02" vaporized=""/>
    <tripinfo id="14" depart="14.00" departLane="" departPos="0.00" departSpeed="14.54" departDelay="0.00" arrival="113.00" arrivalLane="" arrivalPos="154.48" arrivalSpeed="14.54" duration="99.00" routeLength="1427.60" waitingTime="0.00" waitingCount="0" stopTime="0.00" timeLoss="0.00" rerouteNo="0" devices="tripinfo_14" vType="DEFAULT_VEHTYPE" speedFactor="1.05" vaporized=""/>
    <tripinfo id="79" depart="72.00" departLane="" departPos="0.00" departSpeed="13.64" departDelay="0.00" arrival="114.00" arrivalLane="" arrivalPos="113.03" arrivalSpeed="13.64" duration="42.00" routeLength="567.41" waitingTime="0.00" waitingCount="0" stopTime="0.00" timeLoss="0.00" rerouteNo="0" devices="tripinfo_79" vType="DEFAULT_VEHTYPE" speedFactor="0.98" vaporized=""/>
    <tripinfo id="26" depart="26.00" departLane="" departPos="0.00" departSpeed="11.47" departDelay="0.00" arrival="116.00" arrivalLane="" arrivalPos="200.29" arrivalSpeed="11.47" duration="90.00" routeLength="1013.17" waitingTime="0.80" waitingCount="0" stopTime="0.00" timeLoss="1.06" rerouteNo="0" devices="tripinfo_26" vType="DEFAULT_VEHTYPE" speedFactor="0.83" vaporized=""/>
    <tripinfo id="35" depart="30.00" departLane="" departPos="0.00" departSpeed="16.28" departDelay="0.00" arrival="118.00" arrivalLane="" arrivalPos="191.71" arrivalSpeed="16.28" duration="88.00" routeLength="1367.06" waitingTime="0.00" waitingCount="0" stopTime="0.00" timeLoss="3.86" rerouteNo="0" devices="tripinfo_35" vType="DEFAULT_VEHTYPE" speedFactor="1.17" vaporized=""/>
    <tripinfo id="66" depart="59.00" departLane="" departPos="0.00" departSpeed="13.02" departDelay="0.00" arrival="122.00" arrivalLane="" arrivalPos="215.54" arrivalSpeed="13.02" duration="63.00" routeLength="807.67" waitingTime="0.00" waitingCount="0" stopTime="0.00" timeLoss="0.00" rerouteNo="0" devices="tripinfo_66" vType="DEFAULT_VEHTYPE" speedFactor="0.94" vaporized=""/>
    <tripinfo id="7" depart="6.00" departLane="" departPos="0.00" departSpeed="11.54" departDelay="0.00" arrival="123.00" arrivalLane="" arrivalPos="123.46" arrivalSpeed="11.54" duration="117.00" routeLength="1339.79" waitingTime="0.00" waitingCount="0" stopTime="0.00" timeLoss="0.00" rerouteNo="0" devices="tripinfo_7" vType="DEFAULT_VEHTYPE" speedFactor="0.83" vaporized=""/>
    <tripinfo id="30" depart="28.00" departLane="" departPos="0.00" departSpeed="15.72" departDelay="0.00" arrival="123.00" arrivalLane="" arrivalPos="188.74" arrivalSpeed="15.72" duration="95.00" routeLength="1482.81" waitingTime="0.00" waitingCount="0" stopTime="0.00" timeLoss="0.00" rerouteNo="0" devices="tripinfo_30" vType="DEFAULT_VEHTYPE" speedFactor="1.13" vaporized=""/>
    <tripinfo id="45" depart="41.00" departLane="" departPos="0.00" departSpeed="14.41" departDelay="0.00" arrival="124.00" arrivalLane="" arrivalPos="128.88" arrivalSpeed="14.41" duration="83.00" routeLength="1188.63" waitingTime="0.00" waitingCount="0" stopTime="0.00" timeLoss="0.00" rerouteNo="0" devices="tripinfo_45" vType="DEFAULT_VEHTYPE" speedFactor="1.04" vaporized=""/>
    <tripinfo id="27" depart="27.00" departLane="" departPos="0.00" departSpeed="12.12" departDelay="0.00" arrival="129.00" arrivalLane="" arrivalPos="79.98" arrivalSpeed="12.12" duration="102.00" routeLength="1233.11" waitingTime="0.00" waitingCount="0" stopTime="0.00" timeLoss="0.00" rerouteNo="0" devices="tripinfo_27" vType="DEFAULT_VEHTYPE" speedFactor="0.87" vaporized=""/>
    <tripinfo id="5" depart="5.00" departLane="" departPos="0.00" departSpeed="15.04" departDelay="0.00" arrival="130.00" arrivalLane="" arrivalPos="114.02" arrivalSpeed="15.04" duration="125.00" routeLength="1865.22" waitingTime="0.00" waitingCount="0" stopTime="0.00" timeLoss="0.00" rerouteNo="0" devices="tripinfo_5" vType="DEFAULT_VEHTYPE" speedFactor="1.08" vaporized=""/>
    <tripinfo id="49" depart="43.00" departLane="" departPos="0.00" departSpeed="12.51" departDelay="0.00" arrival="133.00" arrivalLane="" arrivalPos="99.76" arrivalSpeed="12.51" duration="90.00" routeLength="1114.59" waitingTime="0.00" waitingCount="0" stopTime="0.00" timeLoss="0.00" rerouteNo="0" devices="tripinfo_49" vType="DEFAULT_VEHTYPE" speedFactor="0.90" vaporized=""/>
    <tripinfo id="63" depart="57.00" departLane="" departPos="0.00" departSpeed="15.55" departDelay="0.00" arrival="134.00" arrivalLane="" arrivalPos="174.54" arrivalSpeed="15.55" duration="77.00" routeLength="1196.77" waitingTime="0.00" waitingCount="0" stopTime="0.00" timeLoss="0.00" rerouteNo="0" devices="tripinfo_63" vType="DEFAULT_VEHTYPE" speedFactor="1.12" vaporized=""/>
    <tripinfo id="78" depart="72.00" departLane="" departPos="0.00" departSpeed="14.34" departDelay="0.00" arrival="134.00" arrivalLane="" arrivalPos="149.23" arrivalSpeed="14.34" duration="62.00" routeLength="877.73" waitingTime="0.00" waitingCount="0" stopTime="0.00" timeLoss="0.00" rerouteNo="0" devices="tripinfo_78" vType="DEFAULT_VEHTYPE" speedFactor="1.03" vaporized=""/>
    <tripinfo id="55" depart="50.00" departLane="" departPos="0.00" departSpeed="15.22" departDelay="0.00" arrival="135.00" arrivalLane="" arrivalPos="205.48" arrivalSpeed="15.22" duration="85.00" routeLength="1287.16" waitingTime="0.00" waitingCount="0" stopTime="0.00" timeLoss="0.00" rerouteNo="0" devices="tripinfo_55" vType="DEFAULT_VEHTYPE" speedFactor="1.10" vaporized=""/>
    <tripinfo id="80" depart="72.00" departLane="" departPos="0.00" departSpeed="13.99" departDelay="0.00" arrival="138.00" arrivalLane="" arrivalPos="189.44" arrivalSpeed="13.99" duration="66.00" routeLength="911.48" waitingTime="0.00" waitingCount="0" stopTime="0.00" timeLoss="0.00" rerouteNo="0" devices="tripinfo_80" vType="DEFAULT_VEHTYPE" speedFactor="1.01" vaporized=""/>
    <tripinfo id="2" depart="0.00" departLane="" departPos="0.00" departSpeed="14.72" departDelay="0.00" arrival="141.00" arrivalLane="" arrivalPos="82.38" arrivalSpeed="14.72" duration="141.00" routeLength="2075.62" waitingTime="0.00" waitingCount="0" stopTime="0.00" timeLoss="0.00" rerouteNo="0" devices="tripinfo_2" vType="DEFAULT_VEHTYPE" speedFactor="1.06" vaporized=""/>
    <tripinfo id="6" depart="5.00" departLane="" departPos="0.00" departSpeed="14.31" departDelay="0.00" arrival="141.00" arrivalLane="" arrivalPos="163.67" arrivalSpeed="14.31" duration="136.00" routeLength="1944.01" waitingTime="0.00" waitingCount="0" stopTime="0.00" timeLoss="0.00" rerouteNo="0" devices="tripinfo_6" vType="DEFAULT_VEHTYPE" speedFactor="1.03" vaporized=""/>
    <tripinfo id="15" depart="14.00" departLane="" departPos="0.00" departSpeed="15.60" departDelay="0.00" arrival="144.00" arrivalLane="" arrivalPos="136.99" arrivalSpeed="15.60" duration="130.00" routeLength="2026.22" waitingTime="0.00" waitingCount="0" stopTime="0.00" timeLoss="0.00" rerouteNo="0" devices="tripinfo_15" vType="DEFAULT_VEHTYPE" speedFactor="1.12" vaporized=""/>
    <tripinfo id="59" depart="53.00" departLane="" departPos="0.00" departSpeed="15.87" departDelay="0.00" arrival="144.00" arrivalLane="" arrivalPos="95.50" arrivalSpeed="15.87" duration="91.00" routeLength="1436.45" waitingTime="0.00" waitingCount="0" stopTime="0.00" timeLoss="0.00" rerouteNo="0" devices="tripinfo_59" vType="DEFAULT_VEHTYPE" speedFactor="1.14" vaporized=""/>
    <tripinfo id="22" depart="22.00" departLane="" departPos="0.00" departSpeed="14.14" departDelay="0.00" arrival="146.00" arrivalLane="" arrivalPos="213.39" arrivalSpeed="14.14" duration="124.00" routeLength="1744.01" waitingTime="0.00" waitingCount="0" stopTime="0.00" timeLoss="0.00" rerouteNo="0" devices="tripinfo_22" vType="DEFAULT_VEHTYPE" speedFactor="1.02" vaporized=""/>
    <tripinfo id="86" depart="76.00" departLane="" departPos="0.00" departSpeed="15.94" departDelay="0.00" arrival="147.00" arrivalLane="" arrivalPos="111.07" arrivalSpeed="15.94" duration="71.00" routeLength="1112.08" waitingTime="0.00" waitingCount="0" stopTime="0.00" timeLoss="0.84" rerouteNo="0" devices="tripinfo_86" vType="DEFAULT_VEHTYPE" speedFactor="1.15" vaporized=""/>
    <tripinfo id="53" depart="47.00" departLane="" departPos="0.00" departSpeed="16.24" departDelay="0.00" arrival="148.00" arrivalLane="" arrivalPos="170.54" arrivalSpeed="16.24" duration="101.00" routeLength="1630.45" waitingTime="0.00" waitingCount="0" stopTime="0.00" timeLoss="0.00" rerouteNo="0" devices="tripinfo_53" vType="DEFAULT_VEHTYPE" speedFactor="1.17" vaporized=""/>
    <tripinfo id="57" depart="52.00" departLane="" departPos="0.00" departSpeed="13.83" departDelay="0.00" arrival="149.00" arrivalLane="" arrivalPos="187.98" arrivalSpeed="13.83" duration="97.00" routeLength="1332.49" waitingTime="0.00" waitingCount="0" stopTime="0.00" timeLoss="0.00" rerouteNo="0" devices="tripinfo_57" vType="DEFAULT_VEHTYPE" speedFactor="1.00" vaporized=""/>
    <tripinfo id="65" depart="58.00" departLane="" departPos="0.00" departSpeed="13.71" departDelay="0.00" arrival="150.00" arrivalLane="" arrivalPos="74.82" arrivalSpeed="13.71" duration="92.00" routeLength="1250.27" waitingTime="0.00" waitingCount="0" stopTime="0.00" timeLoss="0.00" rerouteNo="0" devices="tripinfo_65" vType="DEFAULT_VEHTYPE" speedFactor="0.99" vaporized=""/>
    <tripinfo id="17" depart="18.00" departLane="" departPos="0.00" departSpeed="12.87" departDelay="0.00" arrival="154.00" arrivalLane="" arrivalPos="192.71" arrivalSpeed="12.87" duration="136.00" routeLength="1739.29" waitingTime="0.00" waitingCount="0" stopTime="0.00" timeLoss="0.00" rerouteNo="0" devices="tripinfo_17" vType="DEFAULT_VEHTYPE" speedFactor="0.93" vaporized=""/>
    <tripinfo id="16" depart="17.00" departLane="" departPos="0.00" departSpeed="13.77" departDelay="0.00" arrival="156.00" arrivalLane="" arrivalPos="156.98" arrivalSpeed="13.03" duration="139.00" routeLength="1866.30" waitingTime="1.51" waitingCount="0" stopTime="0.00" timeLoss="3.06" rerouteNo="0" devices="tripinfo_16" vType="DEFAULT_VEHTYPE" speedFactor="0.99" vaporized=""/>
    <tripinfo id="67" depart="60.00" departLane="" departPos="0.00" departSpeed="12.26" departDelay="0.00" arrival="158.00" arrivalLane="" arrivalPos="118.51" arrivalSpeed="12.26" duration="98.00" routeLength="1195.95" waitingTime="0.00" waitingCount="0" stopTime="0.00" timeLoss="0.00" rerouteNo="0" devices="tripinfo_67" vType="DEFAULT_VEHTYPE" speedFactor="0.88" vaporized=""/>
    <tripinfo id="115" depart="101.00" departLane="" departPos="0.00" departSpeed="14.01" departDelay="0.00" arrival="158.00" arrivalLane="" arrivalPos="104.02" arrivalSpeed="14.02" duration="57.00" routeLength="793.37" waitingTime="0.00" waitingCount="0" stopTime="0.00" timeLoss="0.00" rerouteNo="0" devices="tripinfo_115" vType="DEFAULT_VEHTYPE" speedFactor="1.01" vaporized=""/>
    <tripinfo id="61" depart="54.00" departLane="" departPos="0.00" departSpeed="13.47" departDelay="0.00" arrival="160.00" arrivalLane="" arrivalPos="172.73" arrivalSpeed="13.47" duration="106.00" routeLength="1405.44" waitingTime="0.00" waitingCount="0" stopTime="0.00" timeLoss="0.78" rerouteNo="0" devices="tripinfo_61" vType="DEFAULT_VEHTYPE" speedFactor="0.97" vaporized=""/>
    <tripinfo id="70" depart="64.00" departLane="" departPos="0.00" departSpeed="14.45" departDelay="0.00" arrival="161.00" arrivalLane="" arrivalPos="222.28" arrivalSpeed="14.45" duration="97.00" routeLength="1386.98" waitingTime="0.00" waitingCount="0" stopTime="0.00" timeLoss="0.00" rerouteNo="0" devices="tripinfo_70" vType="DEFAULT_VEHTYPE" speedFactor="1.04" vaporized=""/>
    <tripinfo id="88" depart="78.00" departLane="" departPos="0.00" departSpeed="13.91" departDelay="0.00" arrival="161.00" arrivalLane="" arrivalPos="209.36" arrivalSpeed="13.91" duration="83.00" routeLength="1141.18" waitingTime="0.00" waitingCount="0" stopTime="0.00" timeLoss="0.00" rerouteNo="0" devices="tripinfo_88" vType="DEFAULT_VEHTYPE" speedFactor="1.00" vaporized=""/>
    <tripinfo id="19" depart="20.00" departLane="" departPos="0.00" departSpeed="13.08" departDelay="0.00" arrival="162.00" arrivalLane="" arrivalPos="113.62" arrivalSpeed="13.08" duration="142.00" routeLength="1853.49" waitingTime="0.00" waitingCount="0" stopTime="0.00" timeLoss="0.00" rerouteNo="0" devices="tripinfo_19" vType="DEFAULT_VEHTYPE" speedFactor="0.94" vaporized=""/>
    <tripinfo id="84" depart="74.00" departLane="" departPos="0.00" departSpeed="14.12" departDelay="0.00" arrival="165.00" arrivalLane="" arrivalPos="168.57" arrivalSpeed="14.12" duration="91.00" routeLength="1281.91" waitingTime="0.00" waitingCount="0" stopTime="0.00" timeLoss="0.00" rerouteNo="0" devices="tripinfo_84" vType="DEFAULT_VEHTYPE" speedFactor="1.02" vaporized=""/>
    <tripinfo id="21" depart="21.00" departLane="" departPos="0.00" departSpeed="16.09" departDelay="0.00" arrival="167.00" arrivalLane="" arrivalPos="181.85" arrivalSpeed="16.09" duration="146.00" routeLength="2339.07" waitingTime="0.00" waitingCount="0" stopTime="0.00" timeLoss="0.00" rerouteNo="0" devices="tripinfo_21" vType="DEFAULT_VEHTYPE" speedFactor="1.16" vaporized=""/>
    <tripinfo id="74" depart="70.00" departLane="" departPos="0.00" departSpeed="13.06" departDelay="0.00" arrival="167.00" arrivalLane="" arrivalPos="124.25" arrivalSpeed="13.06" duration="97.00" routeLength="1264.52" waitingTime="0.00" waitingCount="0" stopTime="0.00" timeLoss="0.00" rerouteNo="0" devices="tripinfo_74" vType="DEFAULT_VEHTYPE" speedFactor="0.94" vaporized=""/>
    <tripinfo id="33" depart="29.00" departLane="" departPos="0.00" departSpeed="16.03" departDelay="0.00" arrival="174.00" arrivalLane="" arrivalPos="192.71" arrivalSpeed="16.03" duration="145.00" routeLength="2323.25" waitingTime="0.00" waitingCount="0" stopTime="0.00" timeLoss="0.00" rerouteNo="0" devices="tripinfo_33" vType="DEFAULT_VEHTYPE" speedFactor="1.15" vaporized=""/>
    <tripinfo id="106" depart="96.00" departLane="" departPos="0.00" departSpeed="12.42" departDelay="0.00" arrival="174.00" arrivalLane="" arrivalPos="188.66" arrivalSpeed="12.42" duration="78.00" routeLength="957.42" waitingTime="0.00" waitingCount="0" stopTime="0.00" timeLoss="0.00" rerouteNo="0" devices="tripinfo_106" vType="DEFAULT_VEHTYPE" speedFactor="0.89" vaporized=""/>
    <tripinfo id="13" depart="12.00" departLane="" departPos="0.00" departSpeed="14.26" departDelay="0.00" arrival="176.00" arrivalLane="" arrivalPos="171.21" arrivalSpeed="14.26" duration="164.00" routeLength="2276.79" waitingTime="1.11" waitingCount="0" stopTime="0.00" timeLoss="3.41" rerouteNo="0" devices="tripinfo_13" vType="DEFAULT_VEHTYPE" speedFactor="1.03" vaporized=""/>
    <tripinfo id="20" depart="21.00" departLane="" departPos="0.00" departSpeed="13.00" departDelay="0.00" arrival="177.00" arrivalLane="" arrivalPos="209.36" arrivalSpeed="13.00" duration="156.00" routeLength="2025.53" waitingTime="0.00" waitingCount="0" stopTime="0.00" timeLoss="0.00" rerouteNo="0" devices="tripinfo_20" vType="DEFAULT_VEHTYPE" speedFactor="0.94" vaporized=""/>
    <tripinfo id="154" depart="148.00" departLane="" departPos="0.00" departSpeed="14.88" departDelay="0.00" arrival="180.00" arrivalLane="" arrivalPos="132.18" arrivalSpeed="14.88" duration="32.00" routeLength="471.91" waitingTime="0.00" waitingCount="0" stopTime="0.00" timeLoss="0.00" rerouteNo="0" devices="tripinfo_154" vType="DEFAULT_VEHTYPE" speedFactor="1.07" vaporized=""/>
    <tripinfo id="29" depart="27.00" departLane="" departPos="0.00" departSpeed="13.18" departDelay="0.00" arrival="187.00" arrivalLane="" arrivalPos="135.09" arrivalSpeed="13.18" duration="160.00" routeLength="2100.46" waitingTime="0.00" waitingCount="0" stopTime="0.00" timeLoss="0.00" rerouteNo="0" devices="tripinfo_29" vType="DEFAULT_VEHTYPE" speedFactor="0.95" vaporized=""/>
    <tripinfo id="48" depart="43.00" departLane="" departPos="0.00" departSpeed="13.85" departDelay="0.00" arrival="187.00" arrivalLane="" arrivalPos="123.46" arrivalSpeed="13.85" duration="144.00" routeLength="1991.29" waitingTime="0.00" waitingCount="0" stopTime="0.00" timeLoss="0.00" rerouteNo="0" devices="tripinfo_48" vType="DEFAULT_VEHTYPE" speedFactor="1.00" vaporized=""/>
    <tripinfo id="28" depart="27.00" departLane="" departPos="0.00" departSpeed="12.74" departDelay="0.00" arrival="188.00" arrivalLane="" arrivalPos="202.21" arrivalSpeed="12.74" duration="161.00" routeLength="2039.30" waitingTime="0.00" waitingCount="0" stopTime="0.00" timeLoss="0.00" rerouteNo="0" devices="tripinfo_28" vType="DEFAULT_VEHTYPE" speedFactor="0.92" vaporized=""/>
    <tripinfo id="114" depart="100.00" departLane="" departPos="0.00" departSpeed="15.26" departDelay="0.00" arrival="189.00" arrivalLane="" arrivalPos="95.50" arrivalSpeed="15.26" duration="89.00" routeLength="1348.50" waitingTime="0.00" waitingCount="0" stopTime="0.00" timeLoss="0.00" rerouteNo="0" devices="tripinfo_114" vType="DEFAULT_VEHTYPE" speedFactor="1.10" vaporized=""/>
    <tripinfo id="68" depart="61.00" departLane="" departPos="0.00" departSpeed="12.59" departDelay="0.00" arrival="190.00" arrivalLane="" arrivalPos="136.94" arrivalSpeed="12.60" duration="129.00" routeLength="1617.47" waitingTime="0.00" waitingCount="0" stopTime="0.00" timeLoss="0.00" rerouteNo="0" devices="tripinfo_68" vType="DEFAULT_VEHTYPE" speedFactor="0.91" vaporized=""/>
    <tripinfo id="116" depart="107.00" departLane="" departPos="0.00" departSpeed="15.23" departDelay="0.00" arrival="191.00" arrivalLane="" arrivalPos="126.98" arrivalSpeed="15.23" duration="84.00" routeLength="1208.31" waitingTime="0.83" waitingCount="0" stopTime="0.00" timeLoss="3.99" rerouteNo="0" devices="tripinfo_116" vType="DEFAULT_VEHTYPE" speedFactor="1.10" vaporized=""/>
    <tripinfo id="121" depart="110.00" departLane="" departPos="0.00" departSpeed="14.87" departDelay="0.00" arrival="192.00" arrivalLane="" arrivalPos="98.29" arrivalSpeed="14.87" duration="82.00" routeLength="1218.30" waitingTime="0.00" waitingCount="0" stopTime="0.00" timeLoss="0.00" rerouteNo="0" devices="tripinfo_121" vType="DEFAULT_VEHTYPE" speedFactor="1.07" vaporized=""/>
    <tripinfo id="95" depart="85.00" departLane="" departPos="0.00" departSpeed="12.80" departDelay="0.00" arrival="193.00" arrivalLane="" arrivalPos="112.51" arrivalSpeed="12.80" duration="108.00" routeLength="1378.83" waitingTime="0.00" waitingCount="0" stopTime="0.00" timeLoss="0.00" rerouteNo="0" devices="tripinfo_95" vType="DEFAULT_VEHTYPE" speedFactor="0.92" vaporized=""/>
    <tripinfo id="101" depart="93.00" departLane="" departPos="0.00" departSpeed="15.24" departDelay="0.00" arrival="194.00" arrivalLane="" arrivalPos="120.74" arrivalSpeed="15.24" duration="101.00" routeLength="1532.66" waitingTime="0.00" waitingCount="0" stopTime="0.00" timeLoss="0.00" rerouteNo="0" devices="tripinfo_101" vType="DEFAULT_VEHTYPE" speedFactor="1.10" vaporized=""/>
    <tripinfo id="138" depart="128.00" departLane="" departPos="0.00" departSpeed="15.55" departDelay="0.00" arrival="194.00" arrivalLane="" arrivalPos="155.50" arrivalSpeed="15.55" duration="66.00" routeLength="1024.33" waitingTime="0.00" waitingCount="0" stopTime="0.00" timeLoss="0.00" rerouteNo="0" devices="tripinfo_138" vType="DEFAULT_VEHTYPE" speedFactor="1.12" vaporized=""/>
    <tripinfo id="89" depart="79.00" departLane="" departPos="0.00" departSpeed="14.48" departDelay="0.00" arrival="195.00" arrivalLane="" arrivalPos="105.02" arrivalSpeed="14.48" duration="116.00" routeLength="1675.20" waitingTime="0.00" waitingCount="0" stopTime="0.00" timeLoss="0.00" rerouteNo="0" devices="tripinfo_89" vType="DEFAULT_VEHTYPE" speedFactor="1.04" vaporized=""/>
    <tripinfo id="118" depart="107.00" departLane="" departPos="0.00" departSpeed="16.35" departDelay="0.00" arrival="195.00" arrivalLane="" arrivalPos="124.36" arrivalSpeed="16.35" duration="88.00" routeLength="1343.74" waitingTime="0.72" waitingCount="0" stopTime="0.00" timeLoss="5.28" rerouteNo="0" devices="tripinfo_118" vType="DEFAULT_VEHTYPE" speedFactor="1.18" vaporized=""/>
    <tripinfo id="81" depart="73.00" departLane="" departPos="0.00" departSpeed="15.10" departDelay="0.00" arrival="197.00" arrivalLane="" arrivalPos="136.99" arrivalSpeed="15.10" duration="124.00" routeLength="1835.85" waitingTime="1.11" waitingCount="0" stopTime="0.00" timeLoss="2.07" rerouteNo="0" devices="tripinfo_81" vType="DEFAULT_VEHTYPE" speedFactor="1.09" vaporized=""/>
    <tripinfo id="126" depart="113.00" departLane="" departPos="0.00" departSpeed="14.74" departDelay="0.00" arrival="198.00" arrivalLane="" arrivalPos="136.94" arrivalSpeed="14.74" duration="85.00" routeLength="1243.06" waitingTime="0.00" waitingCount="0" stopTime="0.00" timeLoss="0.00" rerouteNo="0" devices="tripinfo_126" vType="DEFAULT_VEHTYPE" speedFactor="1.06" vaporized=""/>
    <tripinfo id="103" depart="94.00" departLane="" departPos="0.00" departSpeed="13.29" departDelay="0.00" arrival="201.00" arrivalLane="" arrivalPos="85.62" arrivalSpeed="13.29" duration="107.00" routeLength="1413.37" waitingTime="0.00" waitingCount="0" stopTime="0.00" timeLoss="0.00" rerouteNo="0" devices="tripinfo_103" vType="DEFAULT_VEHTYPE" speedFactor="0.96" vaporized=""/>
    <tripinfo id="98" depart="89.00" departLane="" departPos="0.00" departSpeed="14.03" departDelay="0.00" arrival="202.00" arrivalLane="" arrivalPos="128.88" arrivalSpeed="14.03" duration="113.00" routeLength="1575.50" waitingTime="0.00" waitingCount="0" stopTime="0.00" timeLoss="0.00" rerouteNo="0" devices="tripinfo_98" vType="DEFAULT_VEHTYPE" speedFactor="1.01" vaporized=""/>
    <tripinfo id="41" depart="38.00" departLane="" departPos="0.00" departSpeed="12.51" departDelay="0.00" arrival="203.00" arrivalLane="" arrivalPos="200.06" arrivalSpeed="12.51" duration="165.00" routeLength="2054.75" waitingTime="0.00" waitingCount="0" stopTime="0.00" timeLoss="0.00" rerouteNo="0" devices="tripinfo_41" vType="DEFAULT_VEHTYPE" speedFactor="0.90" vaporized=""/>
    <tripinfo id="157" depart="153.00" departLane="" departPos="0.00" departSpeed="15.61" departDelay="0.00" arrival="203.00" arrivalLane="" arrivalPos="197.12" arrivalSpeed="15.61" duration="50.00" routeLength="709.94" waitingTime="1.69" waitingCount="0" stopTime="0.00" timeLoss="3.71" rerouteNo="0" devices="tripinfo_157" vType="DEFAULT_VEHTYPE" speedFactor="1.12" vaporized=""/>