<?xml version="1.0" encoding="UTF-8"?>

<!-- generated on 2023-04-29 14:37:53 by Eclipse SUMO sumo Version 1.16.0
<configuration xmlns:xsi="http://www.w3.org/2001/XMLSchema-instance" xsi:noNamespaceSchemaLocation="http://sumo.dlr.de/xsd/sumoConfiguration.xsd">

    <input>
        <net-file value="C:\Users\Local_Man\Desktop\Stolen%20Music\school%20stuff%20for%20college\Semester%2015%20(UH%20Graduate%20School)\COSC%206364%20Nikolaos\SUMO_Project\COSC6364_Project\configurations\maps\4corners_neighborhoods.net.xml"/>
        <route-files value="./configurations/Rounds/4corners_neighborhoods.net.xml-test-0/Macroscopic_DUE/015/Trips_File_015.rou.xml"/>
    </input>

    <output>
        <summary-output value="./configurations/Rounds/4corners_neighborhoods.net.xml-test-0/Macroscopic_DUE/015/summary.xml"/>
        <tripinfo-output value="./configurations/Rounds/4corners_neighborhoods.net.xml-test-0/Macroscopic_DUE/015/trips.trips.xml"/>
        <statistic-output value="./configurations/Rounds/4corners_neighborhoods.net.xml-test-0/Macroscopic_DUE/015/stats_output.xml"/>
    </output>

    <time>
        <begin value="0"/>
    </time>

    <report>
        <log value="./configurations/Rounds/4corners_neighborhoods.net.xml-test-0/Macroscopic_DUE/015/log.sumo.log"/>
        <no-step-log value="true"/>
    </report>

    <gui_only>
        <quit-on-end value="true"/>
    </gui_only>

</configuration>
-->

<tripinfos xmlns:xsi="http://www.w3.org/2001/XMLSchema-instance" xsi:noNamespaceSchemaLocation="http://sumo.dlr.de/xsd/tripinfo_file.xsd">
    <tripinfo id="10" depart="12.00" departLane="422688973_0" departPos="5.10" departSpeed="25.64" departDelay="0.00" arrival="47.00" arrivalLane="-318908683#1_0" arrivalPos="71.22" arrivalSpeed="11.98" duration="35.00" routeLength="684.23" waitingTime="0.00" waitingCount="0" stopTime="0.00" timeLoss="4.34" rerouteNo="0" devices="tripinfo_10" vType="DEFAULT_VEHTYPE" speedFactor="0.92" vaporized=""/>
    <tripinfo id="24" depart="19.00" departLane="318908683#0_0" departPos="5.10" departSpeed="12.42" departDelay="0.00" arrival="80.00" arrivalLane="260998164#0_0" arrivalPos="257.55" arrivalSpeed="23.72" duration="61.00" routeLength="939.98" waitingTime="9.00" waitingCount="1" stopTime="0.00" timeLoss="18.86" rerouteNo="0" devices="tripinfo_24" vType="DEFAULT_VEHTYPE" speedFactor="0.89" vaporized=""/>
    <tripinfo id="32" depart="26.00" departLane="318908683#0_0" departPos="5.10" departSpeed="15.31" departDelay="0.00" arrival="80.00" arrivalLane="918280984_0" arrivalPos="38.78" arrivalSpeed="14.55" duration="54.00" routeLength="693.58" waitingTime="7.00" waitingCount="2" stopTime="0.00" timeLoss="25.82" rerouteNo="0" devices="tripinfo_32" vType="DEFAULT_VEHTYPE" speedFactor="1.10" vaporized=""/>
    <tripinfo id="39" depart="34.00" departLane="318908683#0_0" departPos="5.10" departSpeed="9.46" departDelay="1.00" arrival="82.00" arrivalLane="918280984_0" arrivalPos="38.78" arrivalSpeed="14.57" duration="48.00" routeLength="693.58" waitingTime="1.00" waitingCount="1" stopTime="0.00" timeLoss="18.55" rerouteNo="0" devices="tripinfo_39" vType="DEFAULT_VEHTYPE" speedFactor="1.06" vaporized=""/>
    <tripinfo id="43" depart="39.00" departLane="318908683#0_0" departPos="5.10" departSpeed="13.93" departDelay="0.00" arrival="85.00" arrivalLane="260998164#0_0" arrivalPos="257.55" arrivalSpeed="27.50" duration="46.00" routeLength="939.98" waitingTime="0.00" waitingCount="0" stopTime="0.00" timeLoss="8.62" rerouteNo="0" devices="tripinfo_43" vType="DEFAULT_VEHTYPE" speedFactor="1.00" vaporized=""/>
    <tripinfo id="5" depart="7.00" departLane="597602756#0_0" departPos="5.10" departSpeed="23.24" departDelay="0.00" arrival="87.00" arrivalLane="-597602753#1_0" arrivalPos="143.59" arrivalSpeed="22.45" duration="80.00" routeLength="1638.96" waitingTime="0.00" waitingCount="0" stopTime="0.00" timeLoss="7.90" rerouteNo="0" devices="tripinfo_5" vType="DEFAULT_VEHTYPE" speedFactor="1.05" vaporized=""/>
    <tripinfo id="7" depart="10.00" departLane="918280985_0" departPos="5.10" departSpeed="10.05" departDelay="1.00" arrival="88.00" arrivalLane="15374898#0-AddedOffRampEdge_0" arrivalPos="100.00" arrivalSpeed="27.07" duration="78.00" routeLength="996.81" waitingTime="22.00" waitingCount="1" stopTime="0.00" timeLoss="39.43" rerouteNo="0" devices="tripinfo_7" vType="DEFAULT_VEHTYPE" speedFactor="1.02" vaporized=""/>
    <tripinfo id="9" depart="12.00" departLane="422685671#2_0" departPos="5.10" departSpeed="30.30" departDelay="0.00" arrival="88.00" arrivalLane="-597602753#1_0" arrivalPos="143.59" arrivalSpeed="24.09" duration="76.00" routeLength="1584.34" waitingTime="0.00" waitingCount="0" stopTime="0.00" timeLoss="13.26" rerouteNo="0" devices="tripinfo_9" vType="DEFAULT_VEHTYPE" speedFactor="1.09" vaporized=""/>
    <tripinfo id="23" depart="19.00" departLane="-260998164#3_0" departPos="5.10" departSpeed="21.70" departDelay="1.00" arrival="89.00" arrivalLane="918280984_0" arrivalPos="38.78" arrivalSpeed="14.24" duration="70.00" routeLength="1455.19" waitingTime="0.00" waitingCount="0" stopTime="0.00" timeLoss="14.78" rerouteNo="0" devices="tripinfo_23" vType="DEFAULT_VEHTYPE" speedFactor="1.03" vaporized=""/>
    <tripinfo id="3" depart="4.00" departLane="422685671#2_1" departPos="5.10" departSpeed="30.08" departDelay="0.00" arrival="92.00" arrivalLane="-597602756#0_0" arrivalPos="325.99" arrivalSpeed="23.82" duration="88.00" routeLength="1778.05" waitingTime="0.00" waitingCount="0" stopTime="0.00" timeLoss="14.82" rerouteNo="0" devices="tripinfo_3" vType="DEFAULT_VEHTYPE" speedFactor="1.08" vaporized=""/>
    <tripinfo id="16" depart="16.00" departLane="422688973_0" departPos="5.10" departSpeed="15.75" departDelay="0.00" arrival="98.00" arrivalLane="15374898#0-AddedOffRampEdge_0" arrivalPos="100.00" arrivalSpeed="29.65" duration="82.00" routeLength="1006.54" waitingTime="32.00" waitingCount="1" stopTime="0.00" timeLoss="47.56" rerouteNo="0" devices="tripinfo_16" vType="DEFAULT_VEHTYPE" speedFactor="1.08" vaporized=""/>
    <tripinfo id="46" depart="46.00" departLane="-260998164#3_0" departPos="5.10" departSpeed="26.72" departDelay="0.00" arrival="100.00" arrivalLane="15374898#0-AddedOffRampEdge_1" arrivalPos="100.00" arrivalSpeed="25.54" duration="54.00" routeLength="1332.80" waitingTime="0.00" waitingCount="0" stopTime="0.00" timeLoss="3.57" rerouteNo="0" devices="tripinfo_46" vType="DEFAULT_VEHTYPE" speedFactor="0.96" vaporized=""/>
    <tripinfo id="18" depart="18.00" departLane="597602756#0_0" departPos="5.10" departSpeed="17.56" departDelay="1.00" arrival="103.00" arrivalLane="260998164#0_0" arrivalPos="257.55" arrivalSpeed="27.91" duration="85.00" routeLength="1239.91" waitingTime="0.00" waitingCount="0" stopTime="0.00" timeLoss="12.02" rerouteNo="0" devices="tripinfo_18" vType="DEFAULT_VEHTYPE" speedFactor="1.01" vaporized=""/>
    <tripinfo id="28" depart="23.00" departLane="422688973_2" departPos="5.10" departSpeed="0.24" departDelay="0.00" arrival="105.00" arrivalLane="15374898#0-AddedOffRampEdge_0" arrivalPos="100.00" arrivalSpeed="26.67" duration="82.00" routeLength="1006.54" waitingTime="23.00" waitingCount="1" stopTime="0.00" timeLoss="44.99" rerouteNo="0" devices="tripinfo_28" vType="DEFAULT_VEHTYPE" speedFactor="0.99" vaporized=""/>
    <tripinfo id="33" depart="27.00" departLane="-260998164#3_0" departPos="5.10" departSpeed="28.62" departDelay="0.00" arrival="105.00" arrivalLane="-318908683#1_0" arrivalPos="71.22" arrivalSpeed="13.04" duration="78.00" routeLength="955.07" waitingTime="32.00" waitingCount="1" stopTime="0.00" timeLoss="40.30" rerouteNo="0" devices="tripinfo_33" vType="DEFAULT_VEHTYPE" speedFactor="1.03" vaporized=""/>
    <tripinfo id="38" depart="33.00" departLane="-260998164#3_0" departPos="5.10" departSpeed="23.21" departDelay="0.00" arrival="107.00" arrivalLane="-318908683#1_0" arrivalPos="71.22" arrivalSpeed="13.17" duration="74.00" routeLength="955.07" waitingTime="20.00" waitingCount="1" stopTime="0.00" timeLoss="35.60" rerouteNo="0" devices="tripinfo_38" vType="DEFAULT_VEHTYPE" speedFactor="1.02" vaporized=""/>
    <tripinfo id="59" depart="63.00" departLane="422688973_0" departPos="5.10" departSpeed="28.68" departDelay="0.00" arrival="107.00" arrivalLane="15374898#0-AddedOffRampEdge_0" arrivalPos="100.00" arrivalSpeed="27.42" duration="44.00" routeLength="1006.54" waitingTime="0.00" waitingCount="0" stopTime="0.00" timeLoss="8.03" rerouteNo="0" devices="tripinfo_59" vType="DEFAULT_VEHTYPE" speedFactor="1.03" vaporized=""/>
    <tripinfo id="25" depart="22.00" departLane="597602753#0_0" departPos="5.10" departSpeed="25.65" departDelay="0.00" arrival="108.00" arrivalLane="422688976#1_0" arrivalPos="294.40" arrivalSpeed="31.04" duration="86.00" routeLength="1286.53" waitingTime="3.00" waitingCount="1" stopTime="0.00" timeLoss="17.94" rerouteNo="0" devices="tripinfo_25" vType="DEFAULT_VEHTYPE" speedFactor="1.15" vaporized=""/>
    <tripinfo id="34" depart="29.00" departLane="597602756#0_0" departPos="5.10" departSpeed="23.68" departDelay="0.00" arrival="113.00" arrivalLane="260998164#0_0" arrivalPos="257.55" arrivalSpeed="29.42" duration="84.00" routeLength="1239.91" waitingTime="1.00" waitingCount="1" stopTime="0.00" timeLoss="15.55" rerouteNo="0" devices="tripinfo_34" vType="DEFAULT_VEHTYPE" speedFactor="1.07" vaporized=""/>
    <tripinfo id="19" depart="17.00" departLane="597602756#0_0" departPos="5.10" departSpeed="19.77" departDelay="0.00" arrival="114.00" arrivalLane="-318908683#1_0" arrivalPos="71.22" arrivalSpeed="11.83" duration="97.00" routeLength="1382.88" waitingTime="0.00" waitingCount="0" stopTime="0.00" timeLoss="12.22" rerouteNo="0" devices="tripinfo_19" vType="DEFAULT_VEHTYPE" speedFactor="0.89" vaporized=""/>
    <tripinfo id="6" depart="9.00" departLane="422685671#2_1" departPos="5.10" departSpeed="29.94" departDelay="0.00" arrival="115.00" arrivalLane="260998164#0_0" arrivalPos="257.55" arrivalSpeed="29.73" duration="106.00" routeLength="1329.43" waitingTime="48.00" waitingCount="1" stopTime="0.00" timeLoss="60.72" rerouteNo="0" devices="tripinfo_6" vType="DEFAULT_VEHTYPE" speedFactor="1.08" vaporized=""/>
    <tripinfo id="2" depart="3.00" departLane="422685671#2_0" departPos="5.10" departSpeed="27.09" departDelay="0.00" arrival="117.00" arrivalLane="260998164#0_0" arrivalPos="257.55" arrivalSpeed="26.53" duration="114.00" routeLength="1329.43" waitingTime="52.00" waitingCount="1" stopTime="0.00" timeLoss="64.85" rerouteNo="0" devices="tripinfo_2" vType="DEFAULT_VEHTYPE" speedFactor="0.98" vaporized=""/>
    <tripinfo id="20" depart="17.00" departLane="422685671#2_0" departPos="5.10" departSpeed="28.06" departDelay="0.00" arrival="119.00" arrivalLane="260998164#0_0" arrivalPos="257.55" arrivalSpeed="28.04" duration="102.00" routeLength="1329.43" waitingTime="39.00" waitingCount="1" stopTime="0.00" timeLoss="53.98" rerouteNo="0" devices="tripinfo_20" vType="DEFAULT_VEHTYPE" speedFactor="1.01" vaporized=""/>
    <tripinfo id="67" depart="69.00" departLane="422685671#2_0" departPos="5.10" departSpeed="27.98" departDelay="0.00" arrival="120.00" arrivalLane="260998164#0_0" arrivalPos="257.55" arrivalSpeed="27.90" duration="51.00" routeLength="1329.43" waitingTime="0.00" waitingCount="0" stopTime="0.00" timeLoss="3.28" rerouteNo="0" devices="tripinfo_67" vType="DEFAULT_VEHTYPE" speedFactor="1.01" vaporized=""/>
    <tripinfo id="11" depart="13.00" departLane="422688973_1" departPos="5.10" departSpeed="15.75" departDelay="0.00" arrival="122.00" arrivalLane="-105681660#20_0" arrivalPos="806.12" arrivalSpeed="19.06" duration="109.00" routeLength="1352.23" waitingTime="8.00" waitingCount="2" stopTime="0.00" timeLoss="25.53" rerouteNo="0" devices="tripinfo_11" vType="DEFAULT_VEHTYPE" speedFactor="0.90" vaporized=""/>
    <tripinfo id="17" depart="17.00" departLane="597602753#0_0" departPos="5.10" departSpeed="22.86" departDelay="0.00" arrival="125.00" arrivalLane="-597602756#0_0" arrivalPos="325.99" arrivalSpeed="22.66" duration="108.00" routeLength="1646.04" waitingTime="12.00" waitingCount="1" stopTime="0.00" timeLoss="34.80" rerouteNo="0" devices="tripinfo_17" vType="DEFAULT_VEHTYPE" speedFactor="1.03" vaporized=""/>
    <tripinfo id="12" depart="13.00" departLane="918280985_0" departPos="5.10" departSpeed="11.93" departDelay="0.00" arrival="128.00" arrivalLane="-105681660#20_0" arrivalPos="806.12" arrivalSpeed="19.93" duration="115.00" routeLength="1360.98" waitingTime="21.00" waitingCount="1" stopTime="0.00" timeLoss="33.67" rerouteNo="0" devices="tripinfo_12" vType="DEFAULT_VEHTYPE" speedFactor="0.94" vaporized=""/>
    <tripinfo id="44" depart="40.00" departLane="318908683#0_0" departPos="5.10" departSpeed="11.41" departDelay="0.00" arrival="129.00" arrivalLane="-597602756#0_0" arrivalPos="325.99" arrivalSpeed="24.07" duration="89.00" routeLength="1371.20" waitingTime="0.00" waitingCount="0" stopTime="0.00" timeLoss="21.41" rerouteNo="0" devices="tripinfo_44" vType="DEFAULT_VEHTYPE" speedFactor="1.10" vaporized=""/>
    <tripinfo id="53" depart="56.00" departLane="918280985_0" departPos="5.10" departSpeed="13.16" departDelay="0.00" arrival="129.00" arrivalLane="-318908683#1_0" arrivalPos="71.22" arrivalSpeed="12.00" duration="73.00" routeLength="674.50" waitingTime="29.00" waitingCount="1" stopTime="0.00" timeLoss="40.86" rerouteNo="0" devices="tripinfo_53" vType="DEFAULT_VEHTYPE" speedFactor="0.95" vaporized=""/>
    <tripinfo id="26" depart="22.00" departLane="918280985_0" departPos="5.10" departSpeed="10.50" departDelay="0.00" arrival="130.00" arrivalLane="-105681660#20_0" arrivalPos="806.12" arrivalSpeed="23.81" duration="108.00" routeLength="1360.98" waitingTime="13.00" waitingCount="1" stopTime="0.00" timeLoss="39.58" rerouteNo="0" devices="tripinfo_26" vType="DEFAULT_VEHTYPE" speedFactor="1.12" vaporized=""/>
    <tripinfo id="4" depart="6.00" departLane="422688973_0" departPos="5.10" departSpeed="33.35" departDelay="0.00" arrival="131.00" arrivalLane="-597602756#0_0" arrivalPos="325.99" arrivalSpeed="25.56" duration="125.00" routeLength="1901.28" waitingTime="28.00" waitingCount="1" stopTime="0.00" timeLoss="49.23" rerouteNo="0" devices="tripinfo_4" vType="DEFAULT_VEHTYPE" speedFactor="1.20" vaporized=""/>
    <tripinfo id="22" depart="18.00" departLane="-260998164#3_0" departPos="5.10" departSpeed="24.24" departDelay="0.00" arrival="132.00" arrivalLane="422688976#1_1" arrivalPos="294.40" arrivalSpeed="23.63" duration="114.00" routeLength="1702.46" waitingTime="27.00" waitingCount="1" stopTime="0.00" timeLoss="42.42" rerouteNo="0" devices="tripinfo_22" vType="DEFAULT_VEHTYPE" speedFactor="0.87" vaporized=""/>
    <tripinfo id="40" depart="33.00" departLane="318908683#0_0" departPos="5.10" departSpeed="12.18" departDelay="0.00" arrival="132.00" arrivalLane="-597602753#1_0" arrivalPos="143.59" arrivalSpeed="19.33" duration="99.00" routeLength="1208.14" waitingTime="13.00" waitingCount="1" stopTime="0.00" timeLoss="33.77" rerouteNo="0" devices="tripinfo_40" vType="DEFAULT_VEHTYPE" speedFactor="0.88" vaporized=""/>
    <tripinfo id="13" depart="13.00" departLane="-260998164#3_0" departPos="5.10" departSpeed="31.19" departDelay="0.00" arrival="133.00" arrivalLane="422688976#1_0" arrivalPos="294.40" arrivalSpeed="24.94" duration="120.00" routeLength="1702.46" waitingTime="40.00" waitingCount="2" stopTime="0.00" timeLoss="64.42" rerouteNo="0" devices="tripinfo_13" vType="DEFAULT_VEHTYPE" speedFactor="1.12" vaporized=""/>
    <tripinfo id="49" depart="49.00" departLane="918280985_0" departPos="5.10" departSpeed="15.55" departDelay="0.00" arrival="137.00" arrivalLane="15374898#0-AddedOffRampEdge_0" arrivalPos="100.00" arrivalSpeed="30.88" duration="88.00" routeLength="996.81" waitingTime="37.00" waitingCount="1" stopTime="0.00" timeLoss="53.04" rerouteNo="0" devices="tripinfo_49" vType="DEFAULT_VEHTYPE" speedFactor="1.12" vaporized=""/>
    <tripinfo id="52" depart="54.00" departLane="-260998164#3_0" departPos="5.10" departSpeed="26.66" departDelay="0.00" arrival="139.00" arrivalLane="-597602756#0_0" arrivalPos="325.99" arrivalSpeed="20.72" duration="85.00" routeLength="1231.40" waitingTime="0.00" waitingCount="0" stopTime="0.00" timeLoss="10.42" rerouteNo="0" devices="tripinfo_52" vType="DEFAULT_VEHTYPE" speedFactor="0.96" vaporized=""/>
    <tripinfo id="36" depart="30.00" departLane="422685671#2_1" departPos="5.10" departSpeed="25.02" departDelay="0.00" arrival="141.00" arrivalLane="422688976#1_0" arrivalPos="294.40" arrivalSpeed="24.22" duration="111.00" routeLength="1317.05" waitingTime="43.00" waitingCount="1" stopTime="0.00" timeLoss="56.00" rerouteNo="0" devices="tripinfo_36" vType="DEFAULT_VEHTYPE" speedFactor="0.90" vaporized=""/>
    <tripinfo id="14" depart="14.00" departLane="597602753#0_0" departPos="5.10" departSpeed="18.04" departDelay="1.00" arrival="142.00" arrivalLane="918280984_0" arrivalPos="38.78" arrivalSpeed="13.63" duration="128.00" routeLength="1540.95" waitingTime="29.00" waitingCount="2" stopTime="0.00" timeLoss="61.95" rerouteNo="0" devices="tripinfo_14" vType="DEFAULT_VEHTYPE" speedFactor="1.04" vaporized=""/>
    <tripinfo id="47" depart="48.00" departLane="422685671#2_0" departPos="5.10" departSpeed="28.44" departDelay="0.00" arrival="144.00" arrivalLane="918280984_0" arrivalPos="38.78" arrivalSpeed="13.25" duration="96.00" routeLength="1069.78" waitingTime="32.00" waitingCount="2" stopTime="0.00" timeLoss="52.87" rerouteNo="0" devices="tripinfo_47" vType="DEFAULT_VEHTYPE" speedFactor="1.02" vaporized=""/>
    <tripinfo id="58" depart="62.00" departLane="105681660#12_0" departPos="5.10" departSpeed="24.84" departDelay="0.00" arrival="148.00" arrivalLane="-597602753#1_0" arrivalPos="143.59" arrivalSpeed="24.30" duration="86.00" routeLength="1380.56" waitingTime="18.00" waitingCount="1" stopTime="0.00" timeLoss="29.82" rerouteNo="0" devices="tripinfo_58" vType="DEFAULT_VEHTYPE" speedFactor="1.12" vaporized=""/>
    <tripinfo id="8" depart="9.00" departLane="918280985_0" departPos="5.10" departSpeed="13.03" departDelay="0.00" arrival="150.00" arrivalLane="-597602756#0_0" arrivalPos="325.99" arrivalSpeed="20.74" duration="141.00" routeLength="1891.55" waitingTime="23.00" waitingCount="1" stopTime="0.00" timeLoss="41.78" rerouteNo="0" devices="tripinfo_8" vType="DEFAULT_VEHTYPE" speedFactor="0.94" vaporized=""/>
    <tripinfo id="35" depart="30.00" departLane="-260998164#3_0" departPos="5.10" departSpeed="28.83" departDelay="0.00" arrival="152.00" arrivalLane="-105681660#20_0" arrivalPos="806.12" arrivalSpeed="22.72" duration="122.00" routeLength="2208.42" waitingTime="10.00" waitingCount="1" stopTime="0.00" timeLoss="31.45" rerouteNo="0" devices="tripinfo_35" vType="DEFAULT_VEHTYPE" speedFactor="1.04" vaporized=""/>
    <tripinfo id="71" depart="73.00" departLane="422688973_0" departPos="5.10" departSpeed="0.00" departDelay="0.00" arrival="155.00" arrivalLane="-105681660#20_0" arrivalPos="806.12" arrivalSpeed="23.27" duration="82.00" routeLength="1352.23" waitingTime="0.00" waitingCount="0" stopTime="0.00" timeLoss="10.25" rerouteNo="0" devices="tripinfo_71" vType="DEFAULT_VEHTYPE" speedFactor="1.05" vaporized=""/>
    <tripinfo id="60" depart="63.00" departLane="597602753#0_0" departPos="5.10" departSpeed="20.40" departDelay="0.00" arrival="162.00" arrivalLane="918280984_0" arrivalPos="38.78" arrivalSpeed="11.96" duration="99.00" routeLength="1061.00" waitingTime="9.00" waitingCount="1" stopTime="0.00" timeLoss="20.02" rerouteNo="0" devices="tripinfo_60" vType="DEFAULT_VEHTYPE" speedFactor="0.92" vaporized=""/>
    <tripinfo id="73" depart="80.00" departLane="-260998164#3_0" departPos="5.10" departSpeed="25.18" departDelay="0.00" arrival="170.00" arrivalLane="-597602756#0_0" arrivalPos="325.99" arrivalSpeed="19.18" duration="90.00" routeLength="1231.40" waitingTime="0.00" waitingCount="0" stopTime="0.00" timeLoss="10.29" rerouteNo="0" devices="tripinfo_73" vType="DEFAULT_VEHTYPE" speedFactor="0.91" vaporized=""/>
    <tripinfo id="121" depart="118.00" departLane="422688973_0" departPos="5.10" departSpeed="17.17" departDelay="0.00" arrival="170.00" arrivalLane="15374898#0-AddedOffRampEdge_0" arrivalPos="100.00" arrivalSpeed="24.42" duration="52.00" routeLength="1006.54" waitingTime="0.00" waitingCount="0" stopTime="0.00" timeLoss="10.73" rerouteNo="0" devices="tripinfo_121" vType="DEFAULT_VEHTYPE" speedFactor="0.91" vaporized=""/>
    <tripinfo id="75" depart="83.00" departLane="597602753#0_0" departPos="5.10" departSpeed="24.38" departDelay="0.00" arrival="171.00" arrivalLane="-597602756#0_0" arrivalPos="325.99" arrivalSpeed="22.34" duration="88.00" routeLength="1646.04" waitingTime="0.00" waitingCount="0" stopTime="0.00" timeLoss="19.62" rerouteNo="0" devices="tripinfo_75" vType="DEFAULT_VEHTYPE" speedFactor="1.10" vaporized=""/>
    <tripinfo id="37" depart="31.00" departLane="-260998164#3_0" departPos="5.10" departSpeed="21.41" departDelay="1.00" arrival="173.00" arrivalLane="-597602753#1_0" arrivalPos="143.59" arrivalSpeed="16.75" duration="142.00" routeLength="1979.71" waitingTime="11.00" waitingCount="2" stopTime="0.00" timeLoss="34.61" rerouteNo="0" devices="tripinfo_37" vType="DEFAULT_VEHTYPE" speedFactor="0.77" vaporized=""/>
    <tripinfo id="21" depart="18.00" departLane="422688973_1" departPos="5.10" departSpeed="15.75" departDelay="0.00" arrival="175.00" arrivalLane="260998164#0_0" arrivalPos="257.55" arrivalSpeed="31.27" duration="157.00" routeLength="1470.06" waitingTime="86.00" waitingCount="2" stopTime="0.00" timeLoss="109.14" rerouteNo="0" devices="tripinfo_21" vType="DEFAULT_VEHTYPE" speedFactor="1.13" vaporized=""/>
    <tripinfo id="42" depart="37.00" departLane="-260998164#3_0" departPos="5.10" departSpeed="29.11" departDelay="0.00" arrival="175.00" arrivalLane="-597602753#1_0" arrivalPos="143.59" arrivalSpeed="22.62" duration="138.00" routeLength="1979.71" waitingTime="10.00" waitingCount="2" stopTime="0.00" timeLoss="57.99" rerouteNo="0" devices="tripinfo_42" vType="DEFAULT_VEHTYPE" speedFactor="1.05" vaporized=""/>
    <tripinfo id="79" depart="90.00" departLane="422685671#2_0" departPos="5.10" departSpeed="29.80" departDelay="0.00" arrival="176.00" arrivalLane="-597602753#1_0" arrivalPos="143.59" arrivalSpeed="21.88" duration="86.00" routeLength="1584.34" waitingTime="0.00" waitingCount="0" stopTime="0.00" timeLoss="21.34" rerouteNo="0" devices="tripinfo_79" vType="DEFAULT_VEHTYPE" speedFactor="1.07" vaporized=""/>
    <tripinfo id="55" depart="57.00" departLane="105681660#12_0" departPos="5.10" departSpeed="22.71" departDelay="0.00" arrival="178.00" arrivalLane="422688976#1_0" arrivalPos="294.40" arrivalSpeed="27.20" duration="121.00" routeLength="1630.66" waitingTime="18.00" waitingCount="1" stopTime="0.00" timeLoss="35.39" rerouteNo="0" devices="tripinfo_55" vType="DEFAULT_VEHTYPE" speedFactor="1.02" vaporized=""/>
    <tripinfo id="80" depart="90.00" departLane="422685671#2_1" departPos="5.10" departSpeed="29.89" departDelay="0.00" arrival="178.00" arrivalLane="-597602753#1_0" arrivalPos="143.59" arrivalSpeed="23.39" duration="88.00" routeLength="1584.34" waitingTime="0.00" waitingCount="0" stopTime="0.00" timeLoss="22.47" rerouteNo="0" devices="tripinfo_80" vType="DEFAULT_VEHTYPE" speedFactor="1.08" vaporized=""/>
    <tripinfo id="64" depart="66.00" departLane="422685671#2_0" departPos="5.10" departSpeed="30.06" departDelay="0.00" arrival="180.00" arrivalLane="-105681660#20_0" arrivalPos="806.12" arrivalSpeed="23.47" duration="114.00" routeLength="1813.05" waitingTime="12.00" waitingCount="1" stopTime="0.00" timeLoss="39.24" rerouteNo="0" devices="tripinfo_64" vType="DEFAULT_VEHTYPE" speedFactor="1.08" vaporized=""/>
    <tripinfo id="51" depart="53.00" departLane="422688973_1" departPos="5.10" departSpeed="14.27" departDelay="0.00" arrival="181.00" arrivalLane="260998164#0_0" arrivalPos="257.55" arrivalSpeed="26.96" duration="128.00" routeLength="1470.06" waitingTime="55.00" waitingCount="1" stopTime="0.00" timeLoss="72.42" rerouteNo="0" devices="tripinfo_51" vType="DEFAULT_VEHTYPE" speedFactor="0.99" vaporized=""/>
    <tripinfo id="68" depart="70.00" departLane="918280985_0" departPos="5.10" departSpeed="7.50" departDelay="0.00" arrival="185.00" arrivalLane="-597602753#1_0" arrivalPos="143.59" arrivalSpeed="20.47" duration="115.00" routeLength="1072.66" waitingTime="22.00" waitingCount="1" stopTime="0.00" timeLoss="37.46" rerouteNo="0" devices="tripinfo_68" vType="DEFAULT_VEHTYPE" speedFactor="0.94" vaporized=""/>
    <tripinfo id="57" depart="60.00" departLane="-260998164#3_0" departPos="5.10" departSpeed="25.78" departDelay="0.00" arrival="188.00" arrivalLane="15374898#0-AddedOffRampEdge_0" arrivalPos="100.00" arrivalSpeed="25.53" duration="128.00" routeLength="1332.80" waitingTime="66.00" waitingCount="1" stopTime="0.00" timeLoss="76.10" rerouteNo="0" devices="tripinfo_57" vType="DEFAULT_VEHTYPE" speedFactor="0.93" vaporized=""/>
    <tripinfo id="66" depart="68.00" departLane="-260998164#3_0" departPos="5.10" departSpeed="27.11" departDelay="0.00" arrival="188.00" arrivalLane="15374898#0-AddedOffRampEdge_1" arrivalPos="100.00" arrivalSpeed="26.72" duration="120.00" routeLength="1332.80" waitingTime="57.00" waitingCount="1" stopTime="0.00" timeLoss="69.97" rerouteNo="0" devices="tripinfo_66" vType="DEFAULT_VEHTYPE" speedFactor="0.98" vaporized=""/>
    <tripinfo id="84" depart="94.00" departLane="918280985_0" departPos="5.10" departSpeed="3.00" departDelay="0.00" arrival="189.00" arrivalLane="260998164#0_0" arrivalPos="257.55" arrivalSpeed="33.47" duration="95.00" routeLength="1460.33" waitingTime="11.00" waitingCount="1" stopTime="0.00" timeLoss="49.70" rerouteNo="0" devices="tripinfo_84" vType="DEFAULT_VEHTYPE" speedFactor="1.25" vaporized=""/>
    <tripinfo id="61" depart="64.00" departLane="-260998164#3_0" departPos="5.10" departSpeed="30.19" departDelay="0.00" arrival="191.00" arrivalLane="422688976#1_0" arrivalPos="294.40" arrivalSpeed="29.17" duration="127.00" routeLength="1702.46" waitingTime="44.00" waitingCount="2" stopTime="0.00" timeLoss="69.52" rerouteNo="0" devices="tripinfo_61" vType="DEFAULT_VEHTYPE" speedFactor="1.09" vaporized=""/>
    <tripinfo id="78" depart="88.00" departLane="597602753#0_0" departPos="5.10" departSpeed="21.08" departDelay="0.00" arrival="191.00" arrivalLane="-105681660#20_0" arrivalPos="806.12" arrivalSpeed="20.94" duration="103.00" routeLength="1387.70" waitingTime="24.00" waitingCount="2" stopTime="0.00" timeLoss="36.05" rerouteNo="0" devices="tripinfo_78" vType="DEFAULT_VEHTYPE" speedFactor="0.95" vaporized=""/>
    <tripinfo id="30" depart="25.00" departLane="422685671#2_1" departPos="5.10" departSpeed="26.11" departDelay="0.00" arrival="192.00" arrivalLane="422688976#1_0" arrivalPos="294.40" arrivalSpeed="25.04" duration="167.00" routeLength="1317.05" waitingTime="89.00" waitingCount="2" stopTime="0.00" timeLoss="114.30" rerouteNo="0" devices="tripinfo_30" vType="DEFAULT_VEHTYPE" speedFactor="0.94" vaporized=""/>
    <tripinfo id="74" depart="81.00" departLane="-260998164#3_0" departPos="5.10" departSpeed="23.55" departDelay="0.00" arrival="192.00" arrivalLane="-318908683#1_0" arrivalPos="71.22" arrivalSpeed="14.62" duration="111.00" routeLength="955.07" waitingTime="58.00" waitingCount="1" stopTime="0.00" timeLoss="77.44" rerouteNo="0" devices="tripinfo_74" vType="DEFAULT_VEHTYPE" speedFactor="1.14" vaporized=""/>
    <tripinfo id="15" depart="13.00" departLane="597602753#0_0" departPos="5.10" departSpeed="20.59" departDelay="0.00" arrival="196.00" arrivalLane="-318908683#1_0" arrivalPos="71.22" arrivalSpeed="12.70" duration="183.00" routeLength="1603.43" waitingTime="58.00" waitingCount="2" stopTime="0.00" timeLoss="89.62" rerouteNo="0" devices="tripinfo_15" vType="DEFAULT_VEHTYPE" speedFactor="0.93" vaporized=""/>
    <tripinfo id="27" depart="23.00" departLane="597602753#0_0" departPos="5.10" departSpeed="21.52" departDelay="0.00" arrival="198.00" arrivalLane="-318908683#1_0" arrivalPos="71.22" arrivalSpeed="12.84" duration="175.00" routeLength="1603.43" waitingTime="49.00" waitingCount="2" stopTime="0.00" timeLoss="84.85" rerouteNo="0" devices="tripinfo_27" vType="DEFAULT_VEHTYPE" speedFactor="0.97" vaporized=""/>
    <tripinfo id="29" depart="24.00" departLane="105681660#12_0" departPos="5.10" departSpeed="22.66" departDelay="0.00" arrival="199.00" arrivalLane="260998164#0_0" arrivalPos="257.55" arrivalSpeed="27.77" duration="175.00" routeLength="2188.43" waitingTime="28.00" waitingCount="3" stopTime="0.00" timeLoss="59.67" rerouteNo="0" devices="tripinfo_29" vType="DEFAULT_VEHTYPE" speedFactor="1.02" vaporized=""/>
    <tripinfo id="41" depart="34.00" departLane="105681660#12_0" departPos="5.10" departSpeed="25.97" departDelay="0.00" arrival="199.00" arrivalLane="-318908683#1_0" arrivalPos="71.22" arrivalSpeed="14.86" duration="165.00" routeLength="1835.34" waitingTime="42.00" waitingCount="3" stopTime="0.00" timeLoss="80.41" rerouteNo="0" devices="tripinfo_41" vType="DEFAULT_VEHTYPE" speedFactor="1.17" vaporized=""/>
    <tripinfo id="48" depart="49.00" departLane="318908683#0_0" departPos="5.10" departSpeed="13.85" departDelay="0.00" arrival="199.00" arrivalLane="-597602753#1_0" arrivalPos="143.59" arrivalSpeed="21.86" duration="150.00" routeLength="1208.14" waitingTime="70.00" waitingCount="2" stopTime="0.00" timeLoss="92.93" rerouteNo="0" devices="tripinfo_48" vType="DEFAULT_VEHTYPE" speedFactor="1.00" vaporized=""/>
    <tripinfo id="50" depart="52.00" departLane="318908683#0_0" departPos="5.10" departSpeed="13.86" departDelay="0.00" arrival="200.00" arrivalLane="-597602756#0_0" arrivalPos="325.99" arrivalSpeed="21.34" duration="148.00" routeLength="1371.20" waitingTime="57.00" waitingCount="1" stopTime="0.00" timeLoss="73.28" rerouteNo="0" devices="tripinfo_50" vType="DEFAULT_VEHTYPE" speedFactor="1.00" vaporized=""/>