<?xml version="1.0" encoding="UTF-8"?>

<!-- generated on 2023-04-30 10:48:40 by Eclipse SUMO sumo Version 1.16.0
<configuration xmlns:xsi="http://www.w3.org/2001/XMLSchema-instance" xsi:noNamespaceSchemaLocation="http://sumo.dlr.de/xsd/sumoConfiguration.xsd">

    <input>
        <net-file value="004/../configurations/maps/Braess_Homebrew_fixed1.net.xml"/>
        <route-files value="004/Trips_File_004.rou.xml"/>
        <additional-files value="004/../edgedata.add.xml"/>
    </input>

    <output>
        <output-prefix value="004/"/>
        <summary-output value="004/../summary_004.xml"/>
        <tripinfo-output value="004/../tripinfo_004.xml"/>
    </output>

    <time>
        <begin value="0"/>
    </time>

    <processing>
        <route-steps value="200"/>
        <no-internal-links value="False"/>
        <time-to-teleport value="300"/>
        <time-to-teleport.highways value="0"/>
        <eager-insert value="False"/>
    </processing>

    <report>
        <verbose value="true"/>
        <no-warnings value="False"/>
        <log value="004/../iteration_004.sumo.log"/>
        <no-step-log value="true"/>
    </report>

    <random_number>
        <random value="False"/>
    </random_number>

</configuration>
-->

<tripinfos xmlns:xsi="http://www.w3.org/2001/XMLSchema-instance" xsi:noNamespaceSchemaLocation="http://sumo.dlr.de/xsd/tripinfo_file.xsd">
    <tripinfo id="2" depart="4.00" departLane="E0_0" departPos="5.10" departSpeed="0.00" departDelay="0.00" arrival="102.00" arrivalLane="E3_0" arrivalPos="90.46" arrivalSpeed="24.64" duration="98.00" routeLength="1317.38" waitingTime="0.00" waitingCount="0" stopTime="0.00" timeLoss="17.06" rerouteNo="0" devices="tripinfo_2" vType="DEFAULT_VEHTYPE" speedFactor="1.06" vaporized=""/>
    <tripinfo id="3" depart="7.00" departLane="E0_0" departPos="5.10" departSpeed="0.00" departDelay="3.00" arrival="110.00" arrivalLane="E3_0" arrivalPos="90.46" arrivalSpeed="27.98" duration="103.00" routeLength="1314.99" waitingTime="0.00" waitingCount="0" stopTime="0.00" timeLoss="15.07" rerouteNo="0" devices="tripinfo_3" vType="DEFAULT_VEHTYPE" speedFactor="0.94" vaporized=""/>
    <tripinfo id="4" depart="10.00" departLane="E0_0" departPos="5.10" departSpeed="0.00" departDelay="0.00" arrival="111.00" arrivalLane="E3_0" arrivalPos="90.46" arrivalSpeed="28.27" duration="101.00" routeLength="1314.99" waitingTime="0.00" waitingCount="0" stopTime="0.00" timeLoss="19.98" rerouteNo="0" devices="tripinfo_4" vType="DEFAULT_VEHTYPE" speedFactor="1.01" vaporized=""/>
    <tripinfo id="5" depart="13.00" departLane="E0_0" departPos="5.10" departSpeed="0.00" departDelay="3.00" arrival="113.00" arrivalLane="E3_0" arrivalPos="90.46" arrivalSpeed="29.03" duration="100.00" routeLength="1314.99" waitingTime="0.00" waitingCount="0" stopTime="0.00" timeLoss="23.82" rerouteNo="0" devices="tripinfo_5" vType="DEFAULT_VEHTYPE" speedFactor="1.08" vaporized=""/>
    <tripinfo id="6" depart="16.00" departLane="E0_0" departPos="5.10" departSpeed="0.00" departDelay="6.00" arrival="114.00" arrivalLane="E3_0" arrivalPos="90.46" arrivalSpeed="28.81" duration="98.00" routeLength="1314.99" waitingTime="0.00" waitingCount="0" stopTime="0.00" timeLoss="18.18" rerouteNo="0" devices="tripinfo_6" vType="DEFAULT_VEHTYPE" speedFactor="1.03" vaporized=""/>
    <tripinfo id="7" depart="19.00" departLane="E0_0" departPos="5.10" departSpeed="0.00" departDelay="8.00" arrival="134.00" arrivalLane="E3_0" arrivalPos="90.46" arrivalSpeed="23.66" duration="115.00" routeLength="1314.99" waitingTime="0.00" waitingCount="0" stopTime="0.00" timeLoss="15.38" rerouteNo="0" devices="tripinfo_7" vType="DEFAULT_VEHTYPE" speedFactor="0.83" vaporized=""/>
    <tripinfo id="8" depart="22.00" departLane="E0_0" departPos="5.10" departSpeed="0.00" departDelay="11.00" arrival="135.00" arrivalLane="E3_0" arrivalPos="90.46" arrivalSpeed="25.89" duration="113.00" routeLength="1314.99" waitingTime="0.00" waitingCount="0" stopTime="0.00" timeLoss="34.22" rerouteNo="0" devices="tripinfo_8" vType="DEFAULT_VEHTYPE" speedFactor="1.05" vaporized=""/>
    <tripinfo id="9" depart="25.00" departLane="E0_0" departPos="5.10" departSpeed="0.00" departDelay="11.00" arrival="137.00" arrivalLane="E3_0" arrivalPos="90.46" arrivalSpeed="25.59" duration="112.00" routeLength="1314.99" waitingTime="0.00" waitingCount="0" stopTime="0.00" timeLoss="18.79" rerouteNo="0" devices="tripinfo_9" vType="DEFAULT_VEHTYPE" speedFactor="0.89" vaporized=""/>
    <tripinfo id="10" depart="28.00" departLane="E0_0" departPos="5.10" departSpeed="0.00" departDelay="11.00" arrival="138.00" arrivalLane="E3_0" arrivalPos="90.46" arrivalSpeed="27.35" duration="110.00" routeLength="1314.99" waitingTime="0.00" waitingCount="0" stopTime="0.00" timeLoss="22.13" rerouteNo="0" devices="tripinfo_10" vType="DEFAULT_VEHTYPE" speedFactor="0.94" vaporized=""/>
    <tripinfo id="11" depart="31.00" departLane="E0_0" departPos="5.10" departSpeed="0.00" departDelay="13.00" arrival="142.00" arrivalLane="E3_0" arrivalPos="90.46" arrivalSpeed="24.50" duration="111.00" routeLength="1314.99" waitingTime="0.00" waitingCount="0" stopTime="0.00" timeLoss="14.76" rerouteNo="0" devices="tripinfo_11" vType="DEFAULT_VEHTYPE" speedFactor="0.86" vaporized=""/>
    <tripinfo id="12" depart="34.00" departLane="E0_0" departPos="5.10" departSpeed="0.00" departDelay="16.00" arrival="143.00" arrivalLane="E3_0" arrivalPos="90.46" arrivalSpeed="27.88" duration="109.00" routeLength="1314.99" waitingTime="0.00" waitingCount="0" stopTime="0.00" timeLoss="33.42" rerouteNo="0" devices="tripinfo_12" vType="DEFAULT_VEHTYPE" speedFactor="1.09" vaporized=""/>
    <tripinfo id="13" depart="37.00" departLane="E0_0" departPos="5.10" departSpeed="0.00" departDelay="18.00" arrival="145.00" arrivalLane="E3_0" arrivalPos="90.46" arrivalSpeed="29.24" duration="108.00" routeLength="1314.99" waitingTime="0.00" waitingCount="0" stopTime="0.00" timeLoss="27.28" rerouteNo="0" devices="tripinfo_13" vType="DEFAULT_VEHTYPE" speedFactor="1.03" vaporized=""/>
    <tripinfo id="14" depart="40.00" departLane="E0_0" departPos="5.10" departSpeed="0.00" departDelay="21.00" arrival="146.00" arrivalLane="E3_0" arrivalPos="90.46" arrivalSpeed="29.94" duration="106.00" routeLength="1314.99" waitingTime="0.00" waitingCount="0" stopTime="0.00" timeLoss="27.45" rerouteNo="0" devices="tripinfo_14" vType="DEFAULT_VEHTYPE" speedFactor="1.05" vaporized=""/>
    <tripinfo id="15" depart="43.00" departLane="E0_0" departPos="5.10" departSpeed="0.00" departDelay="23.00" arrival="147.00" arrivalLane="E3_0" arrivalPos="90.46" arrivalSpeed="29.93" duration="104.00" routeLength="1314.99" waitingTime="0.00" waitingCount="0" stopTime="0.00" timeLoss="31.36" rerouteNo="0" devices="tripinfo_15" vType="DEFAULT_VEHTYPE" speedFactor="1.12" vaporized=""/>
    <tripinfo id="16" depart="46.00" departLane="E0_0" departPos="5.10" departSpeed="0.00" departDelay="26.00" arrival="149.00" arrivalLane="E3_0" arrivalPos="90.46" arrivalSpeed="28.51" duration="103.00" routeLength="1314.99" waitingTime="0.00" waitingCount="0" stopTime="0.00" timeLoss="19.81" rerouteNo="0" devices="tripinfo_16" vType="DEFAULT_VEHTYPE" speedFactor="0.99" vaporized=""/>
    <tripinfo id="17" depart="49.00" departLane="E0_0" departPos="5.10" departSpeed="0.00" departDelay="27.00" arrival="153.00" arrivalLane="E3_0" arrivalPos="90.46" arrivalSpeed="27.38" duration="104.00" routeLength="1314.99" waitingTime="0.00" waitingCount="0" stopTime="0.00" timeLoss="15.33" rerouteNo="0" devices="tripinfo_17" vType="DEFAULT_VEHTYPE" speedFactor="0.93" vaporized=""/>
    <tripinfo id="18" depart="52.00" departLane="E0_0" departPos="5.10" departSpeed="0.00" departDelay="29.00" arrival="160.00" arrivalLane="E3_0" arrivalPos="90.46" arrivalSpeed="25.45" duration="108.00" routeLength="1314.99" waitingTime="0.00" waitingCount="0" stopTime="0.00" timeLoss="14.49" rerouteNo="0" devices="tripinfo_18" vType="DEFAULT_VEHTYPE" speedFactor="0.88" vaporized=""/>
    <tripinfo id="20" depart="58.00" departLane="E0_0" departPos="5.10" departSpeed="0.00" departDelay="34.00" arrival="161.00" arrivalLane="E3_0" arrivalPos="90.46" arrivalSpeed="27.31" duration="103.00" routeLength="1314.99" waitingTime="0.00" waitingCount="0" stopTime="0.00" timeLoss="15.48" rerouteNo="0" devices="tripinfo_20" vType="DEFAULT_VEHTYPE" speedFactor="0.94" vaporized=""/>
    <tripinfo id="21" depart="61.00" departLane="E0_0" departPos="5.10" departSpeed="0.00" departDelay="36.00" arrival="163.00" arrivalLane="E3_0" arrivalPos="90.46" arrivalSpeed="29.61" duration="102.00" routeLength="1314.99" waitingTime="0.00" waitingCount="0" stopTime="0.00" timeLoss="30.73" rerouteNo="0" devices="tripinfo_21" vType="DEFAULT_VEHTYPE" speedFactor="1.16" vaporized=""/>
    <tripinfo id="22" depart="64.00" departLane="E0_0" departPos="5.10" departSpeed="0.00" departDelay="38.00" arrival="164.00" arrivalLane="E3_0" arrivalPos="90.46" arrivalSpeed="30.23" duration="100.00" routeLength="1314.99" waitingTime="0.00" waitingCount="0" stopTime="0.00" timeLoss="19.16" rerouteNo="0" devices="tripinfo_22" vType="DEFAULT_VEHTYPE" speedFactor="1.02" vaporized=""/>
    <tripinfo id="23" depart="67.00" departLane="E0_0" departPos="5.10" departSpeed="0.00" departDelay="38.00" arrival="165.00" arrivalLane="E3_0" arrivalPos="90.46" arrivalSpeed="30.12" duration="98.00" routeLength="1314.99" waitingTime="0.00" waitingCount="0" stopTime="0.00" timeLoss="16.86" rerouteNo="0" devices="tripinfo_23" vType="DEFAULT_VEHTYPE" speedFactor="1.01" vaporized=""/>
    <tripinfo id="24" depart="70.00" departLane="E0_0" departPos="5.10" departSpeed="0.00" departDelay="41.00" arrival="170.00" arrivalLane="E3_0" arrivalPos="90.46" arrivalSpeed="28.23" duration="100.00" routeLength="1314.99" waitingTime="0.00" waitingCount="0" stopTime="0.00" timeLoss="15.44" rerouteNo="0" devices="tripinfo_24" vType="DEFAULT_VEHTYPE" speedFactor="0.97" vaporized=""/>
    <tripinfo id="25" depart="73.00" departLane="E0_0" departPos="5.10" departSpeed="0.00" departDelay="43.00" arrival="181.00" arrivalLane="E3_0" arrivalPos="90.46" arrivalSpeed="25.80" duration="108.00" routeLength="1314.99" waitingTime="0.00" waitingCount="0" stopTime="0.00" timeLoss="15.03" rerouteNo="0" devices="tripinfo_25" vType="DEFAULT_VEHTYPE" speedFactor="0.89" vaporized=""/>
    <tripinfo id="27" depart="79.00" departLane="E0_0" departPos="5.10" departSpeed="0.00" departDelay="47.00" arrival="187.00" arrivalLane="E3_0" arrivalPos="90.46" arrivalSpeed="25.98" duration="108.00" routeLength="1314.99" waitingTime="0.00" waitingCount="0" stopTime="0.00" timeLoss="14.16" rerouteNo="0" devices="tripinfo_27" vType="DEFAULT_VEHTYPE" speedFactor="0.87" vaporized=""/>
    <tripinfo id="29" depart="86.00" departLane="E0_0" departPos="5.10" departSpeed="0.00" departDelay="53.00" arrival="189.00" arrivalLane="E3_0" arrivalPos="90.46" arrivalSpeed="28.31" duration="103.00" routeLength="1314.99" waitingTime="0.00" waitingCount="0" stopTime="0.00" timeLoss="16.03" rerouteNo="0" devices="tripinfo_29" vType="DEFAULT_VEHTYPE" speedFactor="0.95" vaporized=""/>
    <tripinfo id="30" depart="89.00" departLane="E0_0" departPos="5.10" departSpeed="0.00" departDelay="55.00" arrival="190.00" arrivalLane="E3_0" arrivalPos="90.46" arrivalSpeed="28.30" duration="101.00" routeLength="1314.99" waitingTime="0.00" waitingCount="0" stopTime="0.00" timeLoss="28.53" rerouteNo="0" devices="tripinfo_30" vType="DEFAULT_VEHTYPE" speedFactor="1.13" vaporized=""/>
    <tripinfo id="31" depart="92.00" departLane="E0_0" departPos="5.10" departSpeed="0.00" departDelay="58.00" arrival="194.00" arrivalLane="E3_0" arrivalPos="90.46" arrivalSpeed="26.67" duration="102.00" routeLength="1314.99" waitingTime="0.00" waitingCount="0" stopTime="0.00" timeLoss="13.85" rerouteNo="0" devices="tripinfo_31" vType="DEFAULT_VEHTYPE" speedFactor="0.93" vaporized=""/>
    <tripinfo id="32" depart="95.00" departLane="E0_0" departPos="5.10" departSpeed="0.00" departDelay="60.00" arrival="196.00" arrivalLane="E3_0" arrivalPos="90.46" arrivalSpeed="30.14" duration="101.00" routeLength="1314.99" waitingTime="0.00" waitingCount="0" stopTime="0.00" timeLoss="30.81" rerouteNo="0" devices="tripinfo_32" vType="DEFAULT_VEHTYPE" speedFactor="1.18" vaporized=""/>
    <tripinfo id="33" depart="98.00" departLane="E0_0" departPos="5.10" departSpeed="0.00" departDelay="63.00" arrival="197.00" arrivalLane="E3_0" arrivalPos="90.46" arrivalSpeed="30.47" duration="99.00" routeLength="1314.99" waitingTime="0.00" waitingCount="0" stopTime="0.00" timeLoss="27.84" rerouteNo="0" devices="tripinfo_33" vType="DEFAULT_VEHTYPE" speedFactor="1.15" vaporized=""/>
    <tripinfo id="34" depart="101.00" departLane="E0_0" departPos="5.10" departSpeed="0.00" departDelay="65.00" arrival="199.00" arrivalLane="E3_0" arrivalPos="90.46" arrivalSpeed="29.57" duration="98.00" routeLength="1314.99" waitingTime="0.00" waitingCount="0" stopTime="0.00" timeLoss="16.02" rerouteNo="0" devices="tripinfo_34" vType="DEFAULT_VEHTYPE" speedFactor="1.01" vaporized=""/>
    <tripinfo id="35" depart="104.00" departLane="E0_0" departPos="5.10" departSpeed="0.00" departDelay="65.00" arrival="200.00" arrivalLane="E3_0" arrivalPos="90.46" arrivalSpeed="31.26" duration="96.00" routeLength="1314.99" waitingTime="0.00" waitingCount="0" stopTime="0.00" timeLoss="25.81" rerouteNo="0" devices="tripinfo_35" vType="DEFAULT_VEHTYPE" speedFactor="1.17" vaporized=""/>
    <tripinfo id="37" depart="110.00" departLane="E0_0" departPos="5.10" departSpeed="0.00" departDelay="69.00" arrival="206.00" arrivalLane="E3_0" arrivalPos="90.46" arrivalSpeed="29.93" duration="96.00" routeLength="1314.99" waitingTime="0.00" waitingCount="0" stopTime="0.00" timeLoss="14.91" rerouteNo="0" devices="tripinfo_37" vType="DEFAULT_VEHTYPE" speedFactor="1.02" vaporized=""/>
    <tripinfo id="38" depart="113.00" departLane="E0_0" departPos="5.10" departSpeed="0.00" departDelay="67.00" arrival="212.00" arrivalLane="E3_0" arrivalPos="90.46" arrivalSpeed="27.99" duration="99.00" routeLength="1314.99" waitingTime="0.00" waitingCount="0" stopTime="0.00" timeLoss="14.84" rerouteNo="0" devices="tripinfo_38" vType="DEFAULT_VEHTYPE" speedFactor="0.97" vaporized=""/>
    <tripinfo id="39" depart="116.00" departLane="E0_0" departPos="5.10" departSpeed="0.00" departDelay="70.00" arrival="214.00" arrivalLane="E3_0" arrivalPos="90.46" arrivalSpeed="33.42" duration="98.00" routeLength="1314.99" waitingTime="0.00" waitingCount="0" stopTime="0.00" timeLoss="27.83" rerouteNo="0" devices="tripinfo_39" vType="DEFAULT_VEHTYPE" speedFactor="1.18" vaporized=""/>
    <tripinfo id="40" depart="119.00" departLane="E0_0" departPos="5.10" departSpeed="0.00" departDelay="68.00" arrival="215.00" arrivalLane="E3_0" arrivalPos="90.46" arrivalSpeed="32.01" duration="96.00" routeLength="1314.99" waitingTime="0.00" waitingCount="0" stopTime="0.00" timeLoss="21.26" rerouteNo="0" devices="tripinfo_40" vType="DEFAULT_VEHTYPE" speedFactor="1.10" vaporized=""/>
    <tripinfo id="19" depart="55.00" departLane="E0_0" departPos="5.10" departSpeed="0.00" departDelay="31.00" arrival="225.00" arrivalLane="E3_0" arrivalPos="90.46" arrivalSpeed="23.10" duration="170.00" routeLength="1317.38" waitingTime="55.00" waitingCount="1" stopTime="0.00" timeLoss="78.94" rerouteNo="0" devices="tripinfo_19" vType="DEFAULT_VEHTYPE" speedFactor="0.94" vaporized=""/>
    <tripinfo id="41" depart="122.00" departLane="E0_0" departPos="5.10" departSpeed="0.00" departDelay="70.00" arrival="228.00" arrivalLane="E3_0" arrivalPos="90.46" arrivalSpeed="26.30" duration="106.00" routeLength="1314.99" waitingTime="0.00" waitingCount="0" stopTime="0.00" timeLoss="14.72" rerouteNo="0" devices="tripinfo_41" vType="DEFAULT_VEHTYPE" speedFactor="0.90" vaporized=""/>
    <tripinfo id="42" depart="125.00" departLane="E0_0" departPos="5.10" departSpeed="0.00" departDelay="72.00" arrival="229.00" arrivalLane="E3_0" arrivalPos="90.46" arrivalSpeed="30.00" duration="104.00" routeLength="1314.99" waitingTime="0.00" waitingCount="0" stopTime="0.00" timeLoss="24.49" rerouteNo="0" devices="tripinfo_42" vType="DEFAULT_VEHTYPE" speedFactor="1.03" vaporized=""/>
    <tripinfo id="44" depart="131.00" departLane="E0_0" departPos="5.10" departSpeed="0.00" departDelay="76.00" arrival="231.00" arrivalLane="E3_0" arrivalPos="90.46" arrivalSpeed="30.81" duration="100.00" routeLength="1314.99" waitingTime="0.00" waitingCount="0" stopTime="0.00" timeLoss="24.42" rerouteNo="0" devices="tripinfo_44" vType="DEFAULT_VEHTYPE" speedFactor="1.09" vaporized=""/>
    <tripinfo id="45" depart="134.00" departLane="E0_0" departPos="5.10" departSpeed="0.00" departDelay="78.00" arrival="232.00" arrivalLane="E3_0" arrivalPos="90.46" arrivalSpeed="29.34" duration="98.00" routeLength="1314.99" waitingTime="0.00" waitingCount="0" stopTime="0.00" timeLoss="18.77" rerouteNo="0" devices="tripinfo_45" vType="DEFAULT_VEHTYPE" speedFactor="1.04" vaporized=""/>
    <tripinfo id="46" depart="137.00" departLane="E0_0" departPos="5.10" departSpeed="0.00" departDelay="81.00" arrival="234.00" arrivalLane="E3_0" arrivalPos="90.46" arrivalSpeed="31.22" duration="97.00" routeLength="1314.99" waitingTime="0.00" waitingCount="0" stopTime="0.00" timeLoss="17.50" rerouteNo="0" devices="tripinfo_46" vType="DEFAULT_VEHTYPE" speedFactor="1.04" vaporized=""/>
    <tripinfo id="47" depart="140.00" departLane="E0_0" departPos="5.10" departSpeed="0.00" departDelay="81.00" arrival="235.00" arrivalLane="E3_0" arrivalPos="90.46" arrivalSpeed="31.99" duration="95.00" routeLength="1314.99" waitingTime="0.00" waitingCount="0" stopTime="0.00" timeLoss="19.40" rerouteNo="0" devices="tripinfo_47" vType="DEFAULT_VEHTYPE" speedFactor="1.09" vaporized=""/>
    <tripinfo id="48" depart="143.00" departLane="E0_0" departPos="5.10" departSpeed="0.00" departDelay="82.00" arrival="241.00" arrivalLane="E3_0" arrivalPos="90.46" arrivalSpeed="29.87" duration="98.00" routeLength="1314.99" waitingTime="0.00" waitingCount="0" stopTime="0.00" timeLoss="15.49" rerouteNo="0" devices="tripinfo_48" vType="DEFAULT_VEHTYPE" speedFactor="1.00" vaporized=""/>
    <tripinfo id="49" depart="146.00" departLane="E0_0" departPos="5.10" departSpeed="0.00" departDelay="84.00" arrival="253.00" arrivalLane="E3_0" arrivalPos="90.46" arrivalSpeed="26.15" duration="107.00" routeLength="1314.99" waitingTime="0.00" waitingCount="0" stopTime="0.00" timeLoss="15.33" rerouteNo="0" devices="tripinfo_49" vType="DEFAULT_VEHTYPE" speedFactor="0.90" vaporized=""/>
    <tripinfo id="50" depart="149.00" departLane="E0_0" departPos="5.10" departSpeed="0.00" departDelay="85.00" arrival="259.00" arrivalLane="E3_0" arrivalPos="90.46" arrivalSpeed="26.03" duration="110.00" routeLength="1314.99" waitingTime="0.00" waitingCount="0" stopTime="0.00" timeLoss="15.99" rerouteNo="0" devices="tripinfo_50" vType="DEFAULT_VEHTYPE" speedFactor="0.88" vaporized=""/>
    <tripinfo id="51" depart="152.00" departLane="E0_0" departPos="5.10" departSpeed="0.00" departDelay="85.00" arrival="264.00" arrivalLane="E3_0" arrivalPos="90.46" arrivalSpeed="24.48" duration="112.00" routeLength="1314.99" waitingTime="0.00" waitingCount="0" stopTime="0.00" timeLoss="15.24" rerouteNo="0" devices="tripinfo_51" vType="DEFAULT_VEHTYPE" speedFactor="0.85" vaporized=""/>
    <tripinfo id="52" depart="155.00" departLane="E0_0" departPos="5.10" departSpeed="0.00" departDelay="86.00" arrival="267.00" arrivalLane="E3_0" arrivalPos="90.46" arrivalSpeed="25.21" duration="112.00" routeLength="1314.99" waitingTime="0.00" waitingCount="0" stopTime="0.00" timeLoss="15.98" rerouteNo="0" devices="tripinfo_52" vType="DEFAULT_VEHTYPE" speedFactor="0.85" vaporized=""/>
    <tripinfo id="53" depart="158.00" departLane="E0_0" departPos="5.10" departSpeed="0.00" departDelay="89.00" arrival="268.00" arrivalLane="E3_0" arrivalPos="90.46" arrivalSpeed="26.15" duration="110.00" routeLength="1314.99" waitingTime="0.00" waitingCount="0" stopTime="0.00" timeLoss="39.99" rerouteNo="0" devices="tripinfo_53" vType="DEFAULT_VEHTYPE" speedFactor="1.17" vaporized=""/>
    <tripinfo id="54" depart="161.00" departLane="E0_0" departPos="5.10" departSpeed="0.00" departDelay="87.00" arrival="270.00" arrivalLane="E3_0" arrivalPos="90.46" arrivalSpeed="27.57" duration="109.00" routeLength="1314.99" waitingTime="0.00" waitingCount="0" stopTime="0.00" timeLoss="28.04" rerouteNo="0" devices="tripinfo_54" vType="DEFAULT_VEHTYPE" speedFactor="1.02" vaporized=""/>
    <tripinfo id="57" depart="170.00" departLane="E0_0" departPos="5.10" departSpeed="0.00" departDelay="94.00" arrival="271.00" arrivalLane="E3_0" arrivalPos="90.46" arrivalSpeed="28.61" duration="101.00" routeLength="1314.99" waitingTime="0.00" waitingCount="0" stopTime="0.00" timeLoss="18.99" rerouteNo="0" devices="tripinfo_57" vType="DEFAULT_VEHTYPE" speedFactor="1.00" vaporized=""/>
    <tripinfo id="58" depart="173.00" departLane="E0_0" departPos="5.10" departSpeed="0.00" departDelay="96.00" arrival="279.00" arrivalLane="E3_0" arrivalPos="90.46" arrivalSpeed="26.38" duration="106.00" routeLength="1314.99" waitingTime="0.00" waitingCount="0" stopTime="0.00" timeLoss="14.43" rerouteNo="0" devices="tripinfo_58" vType="DEFAULT_VEHTYPE" speedFactor="0.90" vaporized=""/>
    <tripinfo id="59" depart="176.00" departLane="E0_0" departPos="5.10" departSpeed="0.00" departDelay="99.00" arrival="281.00" arrivalLane="E3_0" arrivalPos="90.46" arrivalSpeed="29.59" duration="105.00" routeLength="1314.99" waitingTime="0.00" waitingCount="0" stopTime="0.00" timeLoss="32.35" rerouteNo="0" devices="tripinfo_59" vType="DEFAULT_VEHTYPE" speedFactor="1.14" vaporized=""/>
    <tripinfo id="60" depart="179.00" departLane="E0_0" departPos="5.10" departSpeed="0.00" departDelay="101.00" arrival="282.00" arrivalLane="E3_0" arrivalPos="90.46" arrivalSpeed="29.93" duration="103.00" routeLength="1314.99" waitingTime="0.00" waitingCount="0" stopTime="0.00" timeLoss="22.29" rerouteNo="0" devices="tripinfo_60" vType="DEFAULT_VEHTYPE" speedFactor="1.02" vaporized=""/>
    <tripinfo id="62" depart="185.00" departLane="E0_0" departPos="5.10" departSpeed="0.00" departDelay="105.00" arrival="283.00" arrivalLane="E3_0" arrivalPos="90.46" arrivalSpeed="28.94" duration="98.00" routeLength="1314.99" waitingTime="0.00" waitingCount="0" stopTime="0.00" timeLoss="22.34" rerouteNo="0" devices="tripinfo_62" vType="DEFAULT_VEHTYPE" speedFactor="1.08" vaporized=""/>
    <tripinfo id="63" depart="188.00" departLane="E0_0" departPos="5.10" departSpeed="0.00" departDelay="106.00" arrival="285.00" arrivalLane="E3_0" arrivalPos="90.46" arrivalSpeed="32.02" duration="97.00" routeLength="1314.99" waitingTime="0.00" waitingCount="0" stopTime="0.00" timeLoss="22.96" rerouteNo="0" devices="tripinfo_63" vType="DEFAULT_VEHTYPE" speedFactor="1.12" vaporized=""/>
    <tripinfo id="64" depart="191.00" departLane="E0_0" departPos="5.10" departSpeed="0.00" departDelay="108.00" arrival="286.00" arrivalLane="E3_0" arrivalPos="90.46" arrivalSpeed="30.47" duration="95.00" routeLength="1314.99" waitingTime="0.00" waitingCount="0" stopTime="0.00" timeLoss="14.56" rerouteNo="0" devices="tripinfo_64" vType="DEFAULT_VEHTYPE" speedFactor="1.02" vaporized=""/>
    <tripinfo id="65" depart="194.00" departLane="E0_0" departPos="5.10" departSpeed="0.00" departDelay="111.00" arrival="293.00" arrivalLane="E3_0" arrivalPos="90.46" arrivalSpeed="28.67" duration="99.00" routeLength="1314.99" waitingTime="0.00" waitingCount="0" stopTime="0.00" timeLoss="15.67" rerouteNo="0" devices="tripinfo_65" vType="DEFAULT_VEHTYPE" speedFactor="0.99" vaporized=""/>
    <tripinfo id="66" depart="197.00" departLane="E0_0" departPos="5.10" departSpeed="0.00" departDelay="111.00" arrival="300.00" arrivalLane="E3_0" arrivalPos="90.46" arrivalSpeed="27.80" duration="103.00" routeLength="1314.99" waitingTime="0.00" waitingCount="0" stopTime="0.00" timeLoss="14.91" rerouteNo="0" devices="tripinfo_66" vType="DEFAULT_VEHTYPE" speedFactor="0.94" vaporized=""/>
    <tripinfo id="26" depart="76.00" departLane="E0_0" departPos="5.10" departSpeed="0.00" departDelay="44.00" arrival="309.00" arrivalLane="E3_0" arrivalPos="90.46" arrivalSpeed="24.77" duration="233.00" routeLength="1317.38" waitingTime="107.00" waitingCount="2" stopTime="0.00" timeLoss="129.18" rerouteNo="0" devices="tripinfo_26" vType="DEFAULT_VEHTYPE" speedFactor="0.83" vaporized=""/>
    <tripinfo id="67" depart="200.00" departLane="E0_0" departPos="5.10" departSpeed="0.00" departDelay="114.00" arrival="311.00" arrivalLane="E3_0" arrivalPos="90.46" arrivalSpeed="25.59" duration="111.00" routeLength="1314.99" waitingTime="0.00" waitingCount="0" stopTime="0.00" timeLoss="17.45" rerouteNo="0" devices="tripinfo_67" vType="DEFAULT_VEHTYPE" speedFactor="0.88" vaporized=""/>
    <tripinfo id="69" depart="206.00" departLane="E0_0" departPos="5.10" departSpeed="0.00" departDelay="118.00" arrival="312.00" arrivalLane="E3_0" arrivalPos="90.46" arrivalSpeed="26.88" duration="106.00" routeLength="1314.99" waitingTime="0.00" waitingCount="0" stopTime="0.00" timeLoss="16.26" rerouteNo="0" devices="tripinfo_69" vType="DEFAULT_VEHTYPE" speedFactor="0.91" vaporized=""/>
    <tripinfo id="70" depart="209.00" departLane="E0_0" departPos="5.10" departSpeed="0.00" departDelay="121.00" arrival="314.00" arrivalLane="E3_0" arrivalPos="90.46" arrivalSpeed="28.19" duration="105.00" routeLength="1314.99" waitingTime="0.00" waitingCount="0" stopTime="0.00" timeLoss="25.38" rerouteNo="0" devices="tripinfo_70" vType="DEFAULT_VEHTYPE" speedFactor="1.04" vaporized=""/>
    <tripinfo id="72" depart="215.00" departLane="E0_0" departPos="5.10" departSpeed="0.00" departDelay="126.00" arrival="315.00" arrivalLane="E3_0" arrivalPos="90.46" arrivalSpeed="28.53" duration="100.00" routeLength="1314.99" waitingTime="0.00" waitingCount="0" stopTime="0.00" timeLoss="19.59" rerouteNo="0" devices="tripinfo_72" vType="DEFAULT_VEHTYPE" speedFactor="1.02" vaporized=""/>
    <tripinfo id="73" depart="218.00" departLane="E0_0" departPos="5.10" departSpeed="0.00" departDelay="129.00" arrival="317.00" arrivalLane="E3_0" arrivalPos="90.46" arrivalSpeed="28.12" duration="99.00" routeLength="1314.99" waitingTime="0.00" waitingCount="0" stopTime="0.00" timeLoss="14.82" rerouteNo="0" devices="tripinfo_73" vType="DEFAULT_VEHTYPE" speedFactor="0.97" vaporized=""/>
    <tripinfo id="74" depart="221.00" departLane="E0_0" departPos="5.10" departSpeed="0.00" departDelay="130.00" arrival="324.00" arrivalLane="E3_0" arrivalPos="90.46" arrivalSpeed="27.99" duration="103.00" routeLength="1314.99" waitingTime="0.00" waitingCount="0" stopTime="0.00" timeLoss="16.05" rerouteNo="0" devices="tripinfo_74" vType="DEFAULT_VEHTYPE" speedFactor="0.94" vaporized=""/>
    <tripinfo id="75" depart="224.00" departLane="E0_0" departPos="5.10" departSpeed="0.00" departDelay="133.00" arrival="326.00" arrivalLane="E3_0" arrivalPos="90.46" arrivalSpeed="30.48" duration="102.00" routeLength="1314.99" waitingTime="0.00" waitingCount="0" stopTime="0.00" timeLoss="23.88" rerouteNo="0" devices="tripinfo_75" vType="DEFAULT_VEHTYPE" speedFactor="1.06" vaporized=""/>
    <tripinfo id="76" depart="227.00" departLane="E0_0" departPos="5.10" departSpeed="0.00" departDelay="136.00" arrival="328.00" arrivalLane="E3_0" arrivalPos="90.46" arrivalSpeed="27.49" duration="101.00" routeLength="1314.99" waitingTime="0.00" waitingCount="0" stopTime="0.00" timeLoss="14.29" rerouteNo="0" devices="tripinfo_76" vType="DEFAULT_VEHTYPE" speedFactor="0.96" vaporized=""/>
    <tripinfo id="77" depart="230.00" departLane="E0_0" departPos="5.10" departSpeed="0.00" departDelay="139.00" arrival="329.00" arrivalLane="E3_0" arrivalPos="90.46" arrivalSpeed="28.68" duration="99.00" routeLength="1314.99" waitingTime="0.00" waitingCount="0" stopTime="0.00" timeLoss="15.72" rerouteNo="0" devices="tripinfo_77" vType="DEFAULT_VEHTYPE" speedFactor="0.98" vaporized=""/>
    <tripinfo id="78" depart="233.00" departLane="E0_0" departPos="5.10" departSpeed="0.00" departDelay="141.00" arrival="331.00" arrivalLane="E3_0" arrivalPos="90.46" arrivalSpeed="30.20" duration="98.00" routeLength="1314.99" waitingTime="0.00" waitingCount="0" stopTime="0.00" timeLoss="18.15" rerouteNo="0" devices="tripinfo_78" vType="DEFAULT_VEHTYPE" speedFactor="1.03" vaporized=""/>
    <tripinfo id="79" depart="236.00" departLane="E0_0" departPos="5.10" departSpeed="0.00" departDelay="142.00" arrival="334.00" arrivalLane="E3_0" arrivalPos="90.46" arrivalSpeed="28.45" duration="98.00" routeLength="1314.99" waitingTime="0.00" waitingCount="0" stopTime="0.00" timeLoss="14.48" rerouteNo="0" devices="tripinfo_79" vType="DEFAULT_VEHTYPE" speedFactor="0.98" vaporized=""/>
    <tripinfo id="80" depart="239.00" departLane="E0_0" departPos="5.10" departSpeed="0.00" departDelay="145.00" arrival="336.00" arrivalLane="E3_0" arrivalPos="90.46" arrivalSpeed="29.04" duration="97.00" routeLength="1314.99" waitingTime="0.00" waitingCount="0" stopTime="0.00" timeLoss="15.11" rerouteNo="0" devices="tripinfo_80" vType="DEFAULT_VEHTYPE" speedFactor="1.01" vaporized=""/>
    <tripinfo id="81" depart="242.00" departLane="E0_0" departPos="5.10" departSpeed="0.00" departDelay="145.00" arrival="337.00" arrivalLane="E3_0" arrivalPos="90.46" arrivalSpeed="31.68" duration="95.00" routeLength="1314.99" waitingTime="0.00" waitingCount="0" stopTime="0.00" timeLoss="19.28" rerouteNo="0" devices="tripinfo_81" vType="DEFAULT_VEHTYPE" speedFactor="1.09" vaporized=""/>
    <tripinfo id="82" depart="245.00" departLane="E0_0" departPos="5.10" departSpeed="0.00" departDelay="146.00" arrival="340.00" arrivalLane="E3_0" arrivalPos="90.46" arrivalSpeed="30.74" duration="95.00" routeLength="1314.99" waitingTime="0.00" waitingCount="0" stopTime="0.00" timeLoss="15.60" rerouteNo="0" devices="tripinfo_82" vType="DEFAULT_VEHTYPE" speedFactor="1.03" vaporized=""/>