<?xml version="1.0" encoding="UTF-8"?>

<!-- generated on 2023-04-29 15:28:13 by Eclipse SUMO sumo Version 1.16.0
<configuration xmlns:xsi="http://www.w3.org/2001/XMLSchema-instance" xsi:noNamespaceSchemaLocation="http://sumo.dlr.de/xsd/sumoConfiguration.xsd">

    <input>
        <net-file value="C:\Users\Local_Man\Desktop\Stolen%20Music\school%20stuff%20for%20college\Semester%2015%20(UH%20Graduate%20School)\COSC%206364%20Nikolaos\SUMO_Project\COSC6364_Project\configurations\maps\4corners_neighborhoods.net.xml"/>
        <route-files value="./configurations/Rounds/4corners_neighborhoods.net.xml-test-1/Macroscopic_DUE/011/Trips_File_011.rou.xml"/>
    </input>

    <output>
        <summary-output value="./configurations/Rounds/4corners_neighborhoods.net.xml-test-1/Macroscopic_DUE/011/summary.xml"/>
        <tripinfo-output value="./configurations/Rounds/4corners_neighborhoods.net.xml-test-1/Macroscopic_DUE/011/trips.trips.xml"/>
        <statistic-output value="./configurations/Rounds/4corners_neighborhoods.net.xml-test-1/Macroscopic_DUE/011/stats_output.xml"/>
    </output>

    <time>
        <begin value="0"/>
    </time>

    <report>
        <log value="./configurations/Rounds/4corners_neighborhoods.net.xml-test-1/Macroscopic_DUE/011/log.sumo.log"/>
        <no-step-log value="true"/>
    </report>

    <gui_only>
        <quit-on-end value="true"/>
    </gui_only>

</configuration>
-->

<tripinfos xmlns:xsi="http://www.w3.org/2001/XMLSchema-instance" xsi:noNamespaceSchemaLocation="http://sumo.dlr.de/xsd/tripinfo_file.xsd">
    <tripinfo id="5" depart="3.00" departLane="-260998164#3_0" departPos="5.10" departSpeed="30.08" departDelay="0.00" arrival="68.00" arrivalLane="422688976#1_0" arrivalPos="294.40" arrivalSpeed="29.45" duration="65.00" routeLength="1702.46" waitingTime="0.00" waitingCount="0" stopTime="0.00" timeLoss="7.24" rerouteNo="0" devices="tripinfo_5" vType="DEFAULT_VEHTYPE" speedFactor="1.08" vaporized=""/>
    <tripinfo id="9" depart="9.00" departLane="318908683#0_0" departPos="5.10" departSpeed="15.15" departDelay="0.00" arrival="74.00" arrivalLane="422688976#1_1" arrivalPos="294.40" arrivalSpeed="29.62" duration="65.00" routeLength="940.85" waitingTime="21.00" waitingCount="1" stopTime="0.00" timeLoss="30.96" rerouteNo="0" devices="tripinfo_9" vType="DEFAULT_VEHTYPE" speedFactor="1.09" vaporized=""/>
    <tripinfo id="12" depart="14.00" departLane="318908683#0_0" departPos="5.10" departSpeed="12.51" departDelay="0.00" arrival="81.00" arrivalLane="422688976#1_1" arrivalPos="294.40" arrivalSpeed="24.40" duration="67.00" routeLength="940.85" waitingTime="16.00" waitingCount="1" stopTime="0.00" timeLoss="26.17" rerouteNo="0" devices="tripinfo_12" vType="DEFAULT_VEHTYPE" speedFactor="0.90" vaporized=""/>
    <tripinfo id="26" depart="28.00" departLane="318908683#0_0" departPos="5.10" departSpeed="9.16" departDelay="1.00" arrival="84.00" arrivalLane="918280984_0" arrivalPos="38.78" arrivalSpeed="15.17" duration="56.00" routeLength="693.58" waitingTime="8.00" waitingCount="2" stopTime="0.00" timeLoss="29.34" rerouteNo="0" devices="tripinfo_26" vType="DEFAULT_VEHTYPE" speedFactor="1.15" vaporized=""/>
    <tripinfo id="25" depart="27.00" departLane="318908683#0_0" departPos="5.10" departSpeed="12.42" departDelay="0.00" arrival="85.00" arrivalLane="260998164#0_0" arrivalPos="257.55" arrivalSpeed="24.02" duration="58.00" routeLength="939.98" waitingTime="5.00" waitingCount="1" stopTime="0.00" timeLoss="15.60" rerouteNo="0" devices="tripinfo_25" vType="DEFAULT_VEHTYPE" speedFactor="0.89" vaporized=""/>
    <tripinfo id="7" depart="7.00" departLane="597602753#0_0" departPos="5.10" departSpeed="20.84" departDelay="0.00" arrival="94.00" arrivalLane="-597602756#0_0" arrivalPos="325.99" arrivalSpeed="19.63" duration="87.00" routeLength="1646.04" waitingTime="0.00" waitingCount="0" stopTime="0.00" timeLoss="5.95" rerouteNo="0" devices="tripinfo_7" vType="DEFAULT_VEHTYPE" speedFactor="0.94" vaporized=""/>
    <tripinfo id="34" depart="33.00" departLane="-260998164#3_0" departPos="5.10" departSpeed="28.15" departDelay="0.00" arrival="104.00" arrivalLane="15374898#0-AddedOffRampEdge_1" arrivalPos="100.00" arrivalSpeed="28.86" duration="71.00" routeLength="1332.80" waitingTime="10.00" waitingCount="1" stopTime="0.00" timeLoss="25.68" rerouteNo="0" devices="tripinfo_34" vType="DEFAULT_VEHTYPE" speedFactor="1.07" vaporized=""/>
    <tripinfo id="27" depart="29.00" departLane="597602753#0_0" departPos="5.10" departSpeed="21.52" departDelay="0.00" arrival="105.00" arrivalLane="-105681660#20_0" arrivalPos="806.12" arrivalSpeed="20.65" duration="76.00" routeLength="1387.70" waitingTime="1.00" waitingCount="1" stopTime="0.00" timeLoss="9.78" rerouteNo="0" devices="tripinfo_27" vType="DEFAULT_VEHTYPE" speedFactor="0.97" vaporized=""/>
    <tripinfo id="38" depart="37.00" departLane="-260998164#3_0" departPos="5.10" departSpeed="28.36" departDelay="0.00" arrival="106.00" arrivalLane="15374898#0-AddedOffRampEdge_1" arrivalPos="100.00" arrivalSpeed="27.81" duration="69.00" routeLength="1332.80" waitingTime="7.00" waitingCount="1" stopTime="0.00" timeLoss="21.56" rerouteNo="0" devices="tripinfo_38" vType="DEFAULT_VEHTYPE" speedFactor="1.02" vaporized=""/>
    <tripinfo id="4" depart="4.00" departLane="597602756#0_0" departPos="5.10" departSpeed="23.24" departDelay="1.00" arrival="108.00" arrivalLane="15374898#0-AddedOffRampEdge_1" arrivalPos="100.00" arrivalSpeed="28.44" duration="104.00" routeLength="1760.61" waitingTime="1.00" waitingCount="1" stopTime="0.00" timeLoss="21.75" rerouteNo="0" devices="tripinfo_4" vType="DEFAULT_VEHTYPE" speedFactor="1.05" vaporized=""/>
    <tripinfo id="3" depart="3.00" departLane="597602756#0_0" departPos="5.10" departSpeed="26.67" departDelay="0.00" arrival="109.00" arrivalLane="-318908683#1_0" arrivalPos="71.22" arrivalSpeed="15.52" duration="106.00" routeLength="1382.88" waitingTime="24.00" waitingCount="1" stopTime="0.00" timeLoss="42.81" rerouteNo="0" devices="tripinfo_3" vType="DEFAULT_VEHTYPE" speedFactor="1.20" vaporized=""/>
    <tripinfo id="11" depart="13.00" departLane="918280985_0" departPos="5.10" departSpeed="13.00" departDelay="0.00" arrival="110.00" arrivalLane="260998164#0_0" arrivalPos="257.55" arrivalSpeed="30.37" duration="97.00" routeLength="1460.33" waitingTime="21.00" waitingCount="1" stopTime="0.00" timeLoss="46.51" rerouteNo="0" devices="tripinfo_11" vType="DEFAULT_VEHTYPE" speedFactor="1.12" vaporized=""/>
    <tripinfo id="28" depart="29.00" departLane="105681660#12_0" departPos="5.10" departSpeed="22.10" departDelay="0.00" arrival="111.00" arrivalLane="-597602753#1_0" arrivalPos="143.59" arrivalSpeed="21.99" duration="82.00" routeLength="1380.56" waitingTime="6.00" waitingCount="1" stopTime="0.00" timeLoss="18.30" rerouteNo="0" devices="tripinfo_28" vType="DEFAULT_VEHTYPE" speedFactor="0.99" vaporized=""/>
    <tripinfo id="10" depart="10.00" departLane="597602756#0_0" departPos="5.10" departSpeed="20.50" departDelay="0.00" arrival="113.00" arrivalLane="15374898#0-AddedOffRampEdge_1" arrivalPos="100.00" arrivalSpeed="25.30" duration="103.00" routeLength="1760.61" waitingTime="0.00" waitingCount="0" stopTime="0.00" timeLoss="10.40" rerouteNo="0" devices="tripinfo_10" vType="DEFAULT_VEHTYPE" speedFactor="0.92" vaporized=""/>
    <tripinfo id="35" depart="34.00" departLane="918280985_0" departPos="5.10" departSpeed="7.00" departDelay="0.00" arrival="113.00" arrivalLane="260998164#0_0" arrivalPos="257.55" arrivalSpeed="28.73" duration="79.00" routeLength="1460.33" waitingTime="4.00" waitingCount="1" stopTime="0.00" timeLoss="23.70" rerouteNo="0" devices="tripinfo_35" vType="DEFAULT_VEHTYPE" speedFactor="1.04" vaporized=""/>
    <tripinfo id="23" depart="27.00" departLane="422688973_2" departPos="5.10" departSpeed="0.24" departDelay="0.00" arrival="117.00" arrivalLane="15374898#0-AddedOffRampEdge_1" arrivalPos="100.00" arrivalSpeed="30.34" duration="90.00" routeLength="1006.54" waitingTime="28.00" waitingCount="2" stopTime="0.00" timeLoss="56.51" rerouteNo="0" devices="tripinfo_23" vType="DEFAULT_VEHTYPE" speedFactor="1.12" vaporized=""/>
    <tripinfo id="48" depart="48.00" departLane="105681660#12_0" departPos="5.10" departSpeed="22.15" departDelay="0.00" arrival="117.00" arrivalLane="-597602753#1_0" arrivalPos="143.59" arrivalSpeed="22.11" duration="69.00" routeLength="1380.56" waitingTime="0.00" waitingCount="0" stopTime="0.00" timeLoss="5.50" rerouteNo="0" devices="tripinfo_48" vType="DEFAULT_VEHTYPE" speedFactor="1.00" vaporized=""/>
    <tripinfo id="49" depart="49.00" departLane="105681660#12_0" departPos="5.10" departSpeed="20.04" departDelay="1.00" arrival="118.00" arrivalLane="-597602753#1_0" arrivalPos="143.59" arrivalSpeed="22.40" duration="69.00" routeLength="1380.56" waitingTime="0.00" waitingCount="0" stopTime="0.00" timeLoss="12.83" rerouteNo="0" devices="tripinfo_49" vType="DEFAULT_VEHTYPE" speedFactor="1.12" vaporized=""/>
    <tripinfo id="43" depart="44.00" departLane="422685671#2_0" departPos="5.10" departSpeed="27.87" departDelay="0.00" arrival="120.00" arrivalLane="260998164#0_0" arrivalPos="257.55" arrivalSpeed="27.22" duration="76.00" routeLength="1329.43" waitingTime="15.00" waitingCount="1" stopTime="0.00" timeLoss="27.55" rerouteNo="0" devices="tripinfo_43" vType="DEFAULT_VEHTYPE" speedFactor="1.00" vaporized=""/>
    <tripinfo id="2" depart="1.00" departLane="918280985_0" departPos="5.10" departSpeed="13.55" departDelay="0.00" arrival="121.00" arrivalLane="-105681660#20_0" arrivalPos="806.12" arrivalSpeed="20.60" duration="120.00" routeLength="1360.98" waitingTime="31.00" waitingCount="1" stopTime="0.00" timeLoss="41.67" rerouteNo="0" devices="tripinfo_2" vType="DEFAULT_VEHTYPE" speedFactor="0.98" vaporized=""/>
    <tripinfo id="6" depart="6.00" departLane="105681660#12_0" departPos="5.10" departSpeed="23.95" departDelay="0.00" arrival="126.00" arrivalLane="-318908683#1_0" arrivalPos="71.22" arrivalSpeed="13.84" duration="120.00" routeLength="1835.34" waitingTime="1.00" waitingCount="1" stopTime="0.00" timeLoss="28.17" rerouteNo="0" devices="tripinfo_6" vType="DEFAULT_VEHTYPE" speedFactor="1.08" vaporized=""/>
    <tripinfo id="41" depart="43.00" departLane="318908683#0_0" departPos="5.10" departSpeed="14.05" departDelay="0.00" arrival="128.00" arrivalLane="-597602756#0_0" arrivalPos="325.99" arrivalSpeed="25.62" duration="85.00" routeLength="1371.20" waitingTime="1.00" waitingCount="1" stopTime="0.00" timeLoss="21.17" rerouteNo="0" devices="tripinfo_41" vType="DEFAULT_VEHTYPE" speedFactor="1.17" vaporized=""/>
    <tripinfo id="24" depart="27.00" departLane="105681660#12_0" departPos="5.10" departSpeed="25.14" departDelay="0.00" arrival="129.00" arrivalLane="918280984_0" arrivalPos="38.78" arrivalSpeed="14.55" duration="102.00" routeLength="1405.13" waitingTime="9.00" waitingCount="1" stopTime="0.00" timeLoss="29.64" rerouteNo="0" devices="tripinfo_24" vType="DEFAULT_VEHTYPE" speedFactor="1.13" vaporized=""/>
    <tripinfo id="19" depart="25.00" departLane="105681660#12_0" departPos="5.10" departSpeed="22.86" departDelay="0.00" arrival="136.00" arrivalLane="422688976#1_0" arrivalPos="294.40" arrivalSpeed="28.09" duration="111.00" routeLength="1630.66" waitingTime="11.00" waitingCount="1" stopTime="0.00" timeLoss="26.84" rerouteNo="0" devices="tripinfo_19" vType="DEFAULT_VEHTYPE" speedFactor="1.03" vaporized=""/>
    <tripinfo id="55" depart="58.00" departLane="597602756#0_0" departPos="5.10" departSpeed="23.46" departDelay="0.00" arrival="140.00" arrivalLane="-597602753#1_0" arrivalPos="143.59" arrivalSpeed="23.25" duration="82.00" routeLength="1638.96" waitingTime="0.00" waitingCount="0" stopTime="0.00" timeLoss="10.91" rerouteNo="0" devices="tripinfo_55" vType="DEFAULT_VEHTYPE" speedFactor="1.06" vaporized=""/>
    <tripinfo id="32" depart="31.00" departLane="318908683#0_0" departPos="5.10" departSpeed="11.60" departDelay="0.00" arrival="144.00" arrivalLane="-105681660#20_0" arrivalPos="806.12" arrivalSpeed="17.68" duration="113.00" routeLength="1436.85" waitingTime="8.00" waitingCount="2" stopTime="0.00" timeLoss="31.71" rerouteNo="0" devices="tripinfo_32" vType="DEFAULT_VEHTYPE" speedFactor="0.83" vaporized=""/>
    <tripinfo id="33" depart="31.00" departLane="918280985_0" departPos="5.10" departSpeed="10.50" departDelay="0.00" arrival="145.00" arrivalLane="-318908683#1_0" arrivalPos="71.22" arrivalSpeed="14.12" duration="114.00" routeLength="674.50" waitingTime="64.00" waitingCount="2" stopTime="0.00" timeLoss="85.34" rerouteNo="0" devices="tripinfo_33" vType="DEFAULT_VEHTYPE" speedFactor="1.03" vaporized=""/>
    <tripinfo id="16" depart="21.00" departLane="422688973_0" departPos="5.10" departSpeed="15.75" departDelay="0.00" arrival="147.00" arrivalLane="-318908683#1_0" arrivalPos="71.22" arrivalSpeed="14.51" duration="126.00" routeLength="684.23" waitingTime="78.00" waitingCount="2" stopTime="0.00" timeLoss="100.23" rerouteNo="0" devices="tripinfo_16" vType="DEFAULT_VEHTYPE" speedFactor="1.08" vaporized=""/>
    <tripinfo id="8" depart="7.00" departLane="918280985_0" departPos="5.10" departSpeed="14.13" departDelay="0.00" arrival="148.00" arrivalLane="-597602756#0_0" arrivalPos="325.99" arrivalSpeed="22.47" duration="141.00" routeLength="1891.55" waitingTime="25.00" waitingCount="1" stopTime="0.00" timeLoss="48.46" rerouteNo="0" devices="tripinfo_8" vType="DEFAULT_VEHTYPE" speedFactor="1.02" vaporized=""/>
    <tripinfo id="51" depart="49.00" departLane="422688973_1" departPos="5.10" departSpeed="13.62" departDelay="0.00" arrival="150.00" arrivalLane="-318908683#1_0" arrivalPos="71.22" arrivalSpeed="12.69" duration="101.00" routeLength="684.23" waitingTime="50.00" waitingCount="2" stopTime="0.00" timeLoss="72.33" rerouteNo="0" devices="tripinfo_51" vType="DEFAULT_VEHTYPE" speedFactor="1.00" vaporized=""/>
    <tripinfo id="58" depart="59.00" departLane="597602753#0_0" departPos="5.10" departSpeed="24.84" departDelay="0.00" arrival="150.00" arrivalLane="-597602756#0_0" arrivalPos="325.99" arrivalSpeed="24.27" duration="91.00" routeLength="1646.04" waitingTime="6.00" waitingCount="1" stopTime="0.00" timeLoss="22.58" rerouteNo="0" devices="tripinfo_58" vType="DEFAULT_VEHTYPE" speedFactor="1.12" vaporized=""/>
    <tripinfo id="79" depart="81.00" departLane="918280985_0" departPos="5.10" departSpeed="0.48" departDelay="0.00" arrival="151.00" arrivalLane="-318908683#1_0" arrivalPos="71.22" arrivalSpeed="13.89" duration="70.00" routeLength="674.50" waitingTime="14.00" waitingCount="1" stopTime="0.00" timeLoss="42.40" rerouteNo="0" devices="tripinfo_79" vType="DEFAULT_VEHTYPE" speedFactor="1.07" vaporized=""/>
    <tripinfo id="45" depart="45.00" departLane="597602756#0_0" departPos="5.10" departSpeed="19.97" departDelay="0.00" arrival="153.00" arrivalLane="-105681660#20_0" arrivalPos="806.12" arrivalSpeed="18.96" duration="108.00" routeLength="1867.67" waitingTime="0.00" waitingCount="0" stopTime="0.00" timeLoss="11.68" rerouteNo="0" devices="tripinfo_45" vType="DEFAULT_VEHTYPE" speedFactor="0.90" vaporized=""/>
    <tripinfo id="70" depart="72.00" departLane="597602753#0_0" departPos="5.10" departSpeed="23.38" departDelay="0.00" arrival="154.00" arrivalLane="-597602756#0_0" arrivalPos="325.99" arrivalSpeed="22.26" duration="82.00" routeLength="1646.04" waitingTime="0.00" waitingCount="0" stopTime="0.00" timeLoss="10.07" rerouteNo="0" devices="tripinfo_70" vType="DEFAULT_VEHTYPE" speedFactor="1.05" vaporized=""/>
    <tripinfo id="50" depart="49.00" departLane="597602756#0_0" departPos="5.10" departSpeed="21.93" departDelay="0.00" arrival="155.00" arrivalLane="-105681660#20_0" arrivalPos="806.12" arrivalSpeed="21.11" duration="106.00" routeLength="1867.67" waitingTime="0.00" waitingCount="0" stopTime="0.00" timeLoss="17.45" rerouteNo="0" devices="tripinfo_50" vType="DEFAULT_VEHTYPE" speedFactor="0.99" vaporized=""/>
    <tripinfo id="80" depart="102.00" departLane="918280985_0" departPos="5.10" departSpeed="0.90" departDelay="21.00" arrival="157.00" arrivalLane="15374898#0-AddedOffRampEdge_0" arrivalPos="100.00" arrivalSpeed="29.51" duration="55.00" routeLength="996.81" waitingTime="0.00" waitingCount="0" stopTime="0.00" timeLoss="18.57" rerouteNo="0" devices="tripinfo_80" vType="DEFAULT_VEHTYPE" speedFactor="1.08" vaporized=""/>
    <tripinfo id="81" depart="105.00" departLane="918280985_0" departPos="5.10" departSpeed="0.54" departDelay="23.00" arrival="161.00" arrivalLane="15374898#0-AddedOffRampEdge_0" arrivalPos="100.00" arrivalSpeed="29.08" duration="56.00" routeLength="996.81" waitingTime="0.00" waitingCount="0" stopTime="0.00" timeLoss="18.88" rerouteNo="0" devices="tripinfo_81" vType="DEFAULT_VEHTYPE" speedFactor="1.06" vaporized=""/>
    <tripinfo id="42" depart="44.00" departLane="318908683#0_0" departPos="5.10" departSpeed="10.97" departDelay="0.00" arrival="163.00" arrivalLane="422688976#1_0" arrivalPos="294.40" arrivalSpeed="27.88" duration="119.00" routeLength="940.85" waitingTime="66.00" waitingCount="1" stopTime="0.00" timeLoss="83.65" rerouteNo="0" devices="tripinfo_42" vType="DEFAULT_VEHTYPE" speedFactor="1.05" vaporized=""/>
    <tripinfo id="22" depart="26.00" departLane="-260998164#3_0" departPos="5.10" departSpeed="24.24" departDelay="0.00" arrival="164.00" arrivalLane="422688976#1_0" arrivalPos="294.40" arrivalSpeed="23.83" duration="138.00" routeLength="1702.46" waitingTime="50.00" waitingCount="1" stopTime="0.00" timeLoss="66.69" rerouteNo="0" devices="tripinfo_22" vType="DEFAULT_VEHTYPE" speedFactor="0.87" vaporized=""/>
    <tripinfo id="36" depart="35.00" departLane="422688973_2" departPos="5.10" departSpeed="15.75" departDelay="0.00" arrival="164.00" arrivalLane="-105681660#20_0" arrivalPos="806.12" arrivalSpeed="19.26" duration="129.00" routeLength="1352.23" waitingTime="36.00" waitingCount="1" stopTime="0.00" timeLoss="46.29" rerouteNo="0" devices="tripinfo_36" vType="DEFAULT_VEHTYPE" speedFactor="0.90" vaporized=""/>
    <tripinfo id="44" depart="45.00" departLane="-260998164#3_0" departPos="5.10" departSpeed="30.58" departDelay="0.00" arrival="165.00" arrivalLane="422688976#1_1" arrivalPos="294.40" arrivalSpeed="29.40" duration="120.00" routeLength="1712.42" waitingTime="34.00" waitingCount="2" stopTime="0.00" timeLoss="61.74" rerouteNo="0" devices="tripinfo_44" vType="DEFAULT_VEHTYPE" speedFactor="1.10" vaporized=""/>
    <tripinfo id="18" depart="25.00" departLane="597602756#0_0" departPos="5.10" departSpeed="22.41" departDelay="0.00" arrival="166.00" arrivalLane="422688976#1_0" arrivalPos="294.40" arrivalSpeed="27.30" duration="141.00" routeLength="1985.14" waitingTime="23.00" waitingCount="4" stopTime="0.00" timeLoss="56.70" rerouteNo="0" devices="tripinfo_18" vType="DEFAULT_VEHTYPE" speedFactor="1.01" vaporized=""/>
    <tripinfo id="30" depart="30.00" departLane="422685671#2_0" departPos="5.10" departSpeed="30.62" departDelay="0.00" arrival="166.00" arrivalLane="422688976#1_1" arrivalPos="294.40" arrivalSpeed="29.92" duration="136.00" routeLength="1317.05" waitingTime="59.00" waitingCount="2" stopTime="0.00" timeLoss="91.38" rerouteNo="0" devices="tripinfo_30" vType="DEFAULT_VEHTYPE" speedFactor="1.10" vaporized=""/>
    <tripinfo id="118" depart="122.00" departLane="918280985_0" departPos="5.10" departSpeed="6.13" departDelay="6.00" arrival="166.00" arrivalLane="-318908683#1_0" arrivalPos="71.22" arrivalSpeed="11.78" duration="44.00" routeLength="674.50" waitingTime="0.00" waitingCount="0" stopTime="0.00" timeLoss="11.37" rerouteNo="0" devices="tripinfo_118" vType="DEFAULT_VEHTYPE" speedFactor="0.92" vaporized=""/>
    <tripinfo id="40" depart="41.00" departLane="422685671#2_0" departPos="5.10" departSpeed="29.55" departDelay="0.00" arrival="168.00" arrivalLane="422688976#1_0" arrivalPos="294.40" arrivalSpeed="29.00" duration="127.00" routeLength="1317.05" waitingTime="48.00" waitingCount="3" stopTime="0.00" timeLoss="80.15" rerouteNo="0" devices="tripinfo_40" vType="DEFAULT_VEHTYPE" speedFactor="1.06" vaporized=""/>
    <tripinfo id="69" depart="69.00" departLane="422688973_0" departPos="5.10" departSpeed="0.00" departDelay="0.00" arrival="169.00" arrivalLane="-597602753#1_0" arrivalPos="143.59" arrivalSpeed="17.46" duration="100.00" routeLength="1114.81" waitingTime="2.00" waitingCount="1" stopTime="0.00" timeLoss="21.46" rerouteNo="0" devices="tripinfo_69" vType="DEFAULT_VEHTYPE" speedFactor="0.83" vaporized=""/>
    <tripinfo id="73" depart="76.00" departLane="597602753#0_0" departPos="5.10" departSpeed="20.14" departDelay="0.00" arrival="169.00" arrivalLane="422688976#1_1" arrivalPos="294.40" arrivalSpeed="25.11" duration="93.00" routeLength="1788.22" waitingTime="0.00" waitingCount="0" stopTime="0.00" timeLoss="11.04" rerouteNo="0" devices="tripinfo_73" vType="DEFAULT_VEHTYPE" speedFactor="0.91" vaporized=""/>
    <tripinfo id="39" depart="37.00" departLane="422688973_1" departPos="5.10" departSpeed="13.62" departDelay="0.00" arrival="170.00" arrivalLane="-105681660#20_0" arrivalPos="806.12" arrivalSpeed="18.83" duration="133.00" routeLength="1352.23" waitingTime="33.00" waitingCount="1" stopTime="0.00" timeLoss="47.02" rerouteNo="0" devices="tripinfo_39" vType="DEFAULT_VEHTYPE" speedFactor="0.88" vaporized=""/>
    <tripinfo id="13" depart="17.00" departLane="-260998164#3_0" departPos="5.10" departSpeed="25.75" departDelay="0.00" arrival="173.00" arrivalLane="918280984_0" arrivalPos="38.78" arrivalSpeed="11.97" duration="156.00" routeLength="1465.15" waitingTime="77.00" waitingCount="2" stopTime="0.00" timeLoss="94.84" rerouteNo="0" devices="tripinfo_13" vType="DEFAULT_VEHTYPE" speedFactor="0.93" vaporized=""/>
    <tripinfo id="117" depart="120.00" departLane="918280985_0" departPos="5.10" departSpeed="6.33" departDelay="5.00" arrival="173.00" arrivalLane="15374898#0-AddedOffRampEdge_0" arrivalPos="100.00" arrivalSpeed="28.65" duration="53.00" routeLength="996.81" waitingTime="0.00" waitingCount="0" stopTime="0.00" timeLoss="16.29" rerouteNo="0" devices="tripinfo_117" vType="DEFAULT_VEHTYPE" speedFactor="1.07" vaporized=""/>
    <tripinfo id="95" depart="94.00" departLane="-260998164#3_0" departPos="5.10" departSpeed="28.43" departDelay="0.00" arrival="174.00" arrivalLane="-597602756#0_0" arrivalPos="325.99" arrivalSpeed="21.68" duration="80.00" routeLength="1231.40" waitingTime="0.00" waitingCount="0" stopTime="0.00" timeLoss="9.95" rerouteNo="0" devices="tripinfo_95" vType="DEFAULT_VEHTYPE" speedFactor="1.02" vaporized=""/>
    <tripinfo id="29" depart="30.00" departLane="-260998164#3_0" departPos="5.10" departSpeed="28.33" departDelay="0.00" arrival="175.00" arrivalLane="918280984_0" arrivalPos="38.78" arrivalSpeed="13.38" duration="145.00" routeLength="1465.15" waitingTime="66.00" waitingCount="2" stopTime="0.00" timeLoss="89.32" rerouteNo="0" devices="tripinfo_29" vType="DEFAULT_VEHTYPE" speedFactor="1.02" vaporized=""/>
    <tripinfo id="53" depart="55.00" departLane="318908683#0_0" departPos="5.10" departSpeed="12.60" departDelay="0.00" arrival="176.00" arrivalLane="260998164#0_0" arrivalPos="257.55" arrivalSpeed="24.49" duration="121.00" routeLength="939.98" waitingTime="71.00" waitingCount="1" stopTime="0.00" timeLoss="79.88" rerouteNo="0" devices="tripinfo_53" vType="DEFAULT_VEHTYPE" speedFactor="0.91" vaporized=""/>
    <tripinfo id="14" depart="20.00" departLane="422685671#2_0" departPos="5.10" departSpeed="28.95" departDelay="0.00" arrival="177.00" arrivalLane="-105681660#20_0" arrivalPos="806.12" arrivalSpeed="22.27" duration="157.00" routeLength="1813.05" waitingTime="59.00" waitingCount="1" stopTime="0.00" timeLoss="80.28" rerouteNo="0" devices="tripinfo_14" vType="DEFAULT_VEHTYPE" speedFactor="1.04" vaporized=""/>
    <tripinfo id="31" depart="31.00" departLane="-260998164#3_0" departPos="5.10" departSpeed="25.93" departDelay="1.00" arrival="177.00" arrivalLane="918280984_0" arrivalPos="38.78" arrivalSpeed="12.25" duration="146.00" routeLength="1465.15" waitingTime="62.00" waitingCount="2" stopTime="0.00" timeLoss="85.89" rerouteNo="0" devices="tripinfo_31" vType="DEFAULT_VEHTYPE" speedFactor="0.94" vaporized=""/>
    <tripinfo id="101" depart="99.00" departLane="422685671#2_0" departPos="5.10" departSpeed="28.67" departDelay="0.00" arrival="179.00" arrivalLane="918280984_0" arrivalPos="38.78" arrivalSpeed="13.41" duration="80.00" routeLength="1069.78" waitingTime="11.00" waitingCount="1" stopTime="0.00" timeLoss="37.77" rerouteNo="0" devices="tripinfo_101" vType="DEFAULT_VEHTYPE" speedFactor="1.03" vaporized=""/>
    <tripinfo id="62" depart="62.00" departLane="318908683#0_0" departPos="5.10" departSpeed="8.66" departDelay="0.00" arrival="181.00" arrivalLane="918280984_0" arrivalPos="38.78" arrivalSpeed="14.16" duration="119.00" routeLength="693.58" waitingTime="67.00" waitingCount="2" stopTime="0.00" timeLoss="90.04" rerouteNo="0" devices="tripinfo_62" vType="DEFAULT_VEHTYPE" speedFactor="1.09" vaporized=""/>
    <tripinfo id="65" depart="63.00" departLane="105681660#12_0" departPos="5.10" departSpeed="22.60" departDelay="0.00" arrival="182.00" arrivalLane="-597602753#1_0" arrivalPos="143.59" arrivalSpeed="22.54" duration="119.00" routeLength="1380.56" waitingTime="36.00" waitingCount="3" stopTime="0.00" timeLoss="56.31" rerouteNo="0" devices="tripinfo_65" vType="DEFAULT_VEHTYPE" speedFactor="1.02" vaporized=""/>
    <tripinfo id="100" depart="98.00" departLane="597602756#0_0" departPos="5.10" departSpeed="24.51" departDelay="0.00" arrival="183.00" arrivalLane="260998164#0_0" arrivalPos="257.55" arrivalSpeed="30.29" duration="85.00" routeLength="1239.91" waitingTime="2.00" waitingCount="1" stopTime="0.00" timeLoss="18.15" rerouteNo="0" devices="tripinfo_100" vType="DEFAULT_VEHTYPE" speedFactor="1.10" vaporized=""/>
    <tripinfo id="15" depart="20.00" departLane="422685671#2_1" departPos="5.10" departSpeed="26.01" departDelay="0.00" arrival="186.00" arrivalLane="-105681660#20_0" arrivalPos="806.12" arrivalSpeed="19.93" duration="166.00" routeLength="1813.05" waitingTime="58.00" waitingCount="1" stopTime="0.00" timeLoss="80.53" rerouteNo="0" devices="tripinfo_15" vType="DEFAULT_VEHTYPE" speedFactor="0.94" vaporized=""/>
    <tripinfo id="17" depart="23.00" departLane="422685671#2_0" departPos="5.10" departSpeed="28.06" departDelay="0.00" arrival="187.00" arrivalLane="-105681660#20_0" arrivalPos="806.12" arrivalSpeed="21.27" duration="164.00" routeLength="1813.05" waitingTime="57.00" waitingCount="1" stopTime="0.00" timeLoss="83.76" rerouteNo="0" devices="tripinfo_17" vType="DEFAULT_VEHTYPE" speedFactor="1.01" vaporized=""/>
    <tripinfo id="52" depart="53.00" departLane="105681660#12_0" departPos="5.10" departSpeed="21.32" departDelay="0.00" arrival="189.00" arrivalLane="-597602756#0_0" arrivalPos="325.99" arrivalSpeed="21.02" duration="136.00" routeLength="1877.95" waitingTime="28.00" waitingCount="2" stopTime="0.00" timeLoss="45.07" rerouteNo="0" devices="tripinfo_52" vType="DEFAULT_VEHTYPE" speedFactor="0.96" vaporized=""/>
    <tripinfo id="72" depart="76.00" departLane="318908683#0_0" departPos="5.10" departSpeed="11.96" departDelay="0.00" arrival="191.00" arrivalLane="260998164#0_0" arrivalPos="257.55" arrivalSpeed="23.26" duration="115.00" routeLength="939.98" waitingTime="59.00" waitingCount="1" stopTime="0.00" timeLoss="71.66" rerouteNo="0" devices="tripinfo_72" vType="DEFAULT_VEHTYPE" speedFactor="0.86" vaporized=""/>
    <tripinfo id="56" depart="58.00" departLane="105681660#12_0" departPos="5.10" departSpeed="22.71" departDelay="0.00" arrival="193.00" arrivalLane="918280984_0" arrivalPos="38.78" arrivalSpeed="13.04" duration="135.00" routeLength="1405.13" waitingTime="32.00" waitingCount="3" stopTime="0.00" timeLoss="55.77" rerouteNo="0" devices="tripinfo_56" vType="DEFAULT_VEHTYPE" speedFactor="1.02" vaporized=""/>
    <tripinfo id="67" depart="67.00" departLane="918280985_0" departPos="5.10" departSpeed="12.91" departDelay="0.00" arrival="193.00" arrivalLane="-597602753#1_0" arrivalPos="143.59" arrivalSpeed="21.28" duration="126.00" routeLength="1123.56" waitingTime="36.00" waitingCount="3" stopTime="0.00" timeLoss="59.37" rerouteNo="0" devices="tripinfo_67" vType="DEFAULT_VEHTYPE" speedFactor="1.01" vaporized=""/>
    <tripinfo id="74" depart="77.00" departLane="318908683#0_0" departPos="5.10" departSpeed="9.04" departDelay="0.00" arrival="193.00" arrivalLane="260998164#0_0" arrivalPos="257.55" arrivalSpeed="26.94" duration="116.00" routeLength="939.98" waitingTime="58.00" waitingCount="1" stopTime="0.00" timeLoss="82.84" rerouteNo="0" devices="tripinfo_74" vType="DEFAULT_VEHTYPE" speedFactor="1.14" vaporized=""/>
    <tripinfo id="47" depart="47.00" departLane="422685671#2_1" departPos="5.10" departSpeed="28.44" departDelay="0.00" arrival="194.00" arrivalLane="-597602756#0_0" arrivalPos="325.99" arrivalSpeed="21.90" duration="147.00" routeLength="1778.05" waitingTime="40.00" waitingCount="1" stopTime="0.00" timeLoss="70.39" rerouteNo="0" devices="tripinfo_47" vType="DEFAULT_VEHTYPE" speedFactor="1.02" vaporized=""/>
    <tripinfo id="54" depart="55.00" departLane="918280985_0" departPos="5.10" departSpeed="13.16" departDelay="0.00" arrival="196.00" arrivalLane="-105681660#20_0" arrivalPos="806.12" arrivalSpeed="20.15" duration="141.00" routeLength="1360.98" waitingTime="42.00" waitingCount="2" stopTime="0.00" timeLoss="59.90" rerouteNo="0" devices="tripinfo_54" vType="DEFAULT_VEHTYPE" speedFactor="0.95" vaporized=""/>
    <tripinfo id="87" depart="85.00" departLane="422685671#2_0" departPos="5.10" departSpeed="30.46" departDelay="0.00" arrival="199.00" arrivalLane="-597602756#0_0" arrivalPos="325.99" arrivalSpeed="23.57" duration="114.00" routeLength="1778.05" waitingTime="10.00" waitingCount="1" stopTime="0.00" timeLoss="42.43" rerouteNo="0" devices="tripinfo_87" vType="DEFAULT_VEHTYPE" speedFactor="1.10" vaporized=""/>