<?xml version="1.0" encoding="UTF-8"?>

<!-- generated on 2023-04-29 20:52:47 by Eclipse SUMO sumo Version 1.16.0
<configuration xmlns:xsi="http://www.w3.org/2001/XMLSchema-instance" xsi:noNamespaceSchemaLocation="http://sumo.dlr.de/xsd/sumoConfiguration.xsd">

    <input>
        <net-file value="C:\Users\Local_Man\Desktop\Stolen%20Music\school%20stuff%20for%20college\Semester%2015%20(UH%20Graduate%20School)\COSC%206364%20Nikolaos\SUMO_Project\COSC6364_Project\configurations\maps\4corners_neighborhoods.net.xml"/>
        <route-files value="./configurations/Rounds/4corners_neighborhoods.net.xml-test-3/Microscopic_DUE/022/Trips_File_022.rou.xml"/>
    </input>

    <output>
        <summary-output value="./configurations/Rounds/4corners_neighborhoods.net.xml-test-3/Microscopic_DUE/022/summary.xml"/>
        <tripinfo-output value="./configurations/Rounds/4corners_neighborhoods.net.xml-test-3/Microscopic_DUE/022/trips.trips.xml"/>
        <statistic-output value="./configurations/Rounds/4corners_neighborhoods.net.xml-test-3/Microscopic_DUE/022/stats_output.xml"/>
    </output>

    <time>
        <begin value="0"/>
    </time>

    <report>
        <log value="./configurations/Rounds/4corners_neighborhoods.net.xml-test-3/Microscopic_DUE/022/log.sumo.log"/>
        <no-step-log value="true"/>
    </report>

    <gui_only>
        <quit-on-end value="true"/>
    </gui_only>

</configuration>
-->

<tripinfos xmlns:xsi="http://www.w3.org/2001/XMLSchema-instance" xsi:noNamespaceSchemaLocation="http://sumo.dlr.de/xsd/tripinfo_file.xsd">
    <tripinfo id="29" depart="33.00" departLane="318908683#0_0" departPos="5.10" departSpeed="0.00" departDelay="0.00" arrival="80.00" arrivalLane="260998164#0_0" arrivalPos="257.55" arrivalSpeed="26.31" duration="47.00" routeLength="939.98" waitingTime="0.00" waitingCount="0" stopTime="0.00" timeLoss="7.10" rerouteNo="0" devices="tripinfo_29" vType="DEFAULT_VEHTYPE" speedFactor="0.95" vaporized=""/>
    <tripinfo id="10" depart="11.00" departLane="105681660#12_0" departPos="5.10" departSpeed="0.00" departDelay="3.00" arrival="89.00" arrivalLane="-597602753#1_0" arrivalPos="143.59" arrivalSpeed="20.79" duration="78.00" routeLength="1380.56" waitingTime="0.00" waitingCount="0" stopTime="0.00" timeLoss="10.23" rerouteNo="0" devices="tripinfo_10" vType="DEFAULT_VEHTYPE" speedFactor="0.94" vaporized=""/>
    <tripinfo id="21" depart="19.00" departLane="422688973_0" departPos="5.10" departSpeed="0.00" departDelay="0.00" arrival="95.00" arrivalLane="-597602753#1_0" arrivalPos="143.59" arrivalSpeed="24.45" duration="76.00" routeLength="1063.91" waitingTime="0.00" waitingCount="0" stopTime="0.00" timeLoss="13.10" rerouteNo="0" devices="tripinfo_21" vType="DEFAULT_VEHTYPE" speedFactor="1.16" vaporized=""/>
    <tripinfo id="12" depart="12.00" departLane="597602756#0_0" departPos="5.10" departSpeed="0.00" departDelay="0.00" arrival="96.00" arrivalLane="-597602753#1_0" arrivalPos="143.59" arrivalSpeed="23.13" duration="84.00" routeLength="1638.96" waitingTime="0.00" waitingCount="0" stopTime="0.00" timeLoss="15.42" rerouteNo="0" devices="tripinfo_12" vType="DEFAULT_VEHTYPE" speedFactor="1.09" vaporized=""/>
    <tripinfo id="9" depart="8.00" departLane="-260998164#3_0" departPos="5.10" departSpeed="0.00" departDelay="1.00" arrival="106.00" arrivalLane="-597602756#0_0" arrivalPos="325.99" arrivalSpeed="19.07" duration="98.00" routeLength="1231.40" waitingTime="0.00" waitingCount="0" stopTime="0.00" timeLoss="16.44" rerouteNo="0" devices="tripinfo_9" vType="DEFAULT_VEHTYPE" speedFactor="0.89" vaporized=""/>
    <tripinfo id="3" depart="2.00" departLane="422685671#2_0" departPos="5.10" departSpeed="0.00" departDelay="0.00" arrival="109.00" arrivalLane="-105681660#20_0" arrivalPos="806.12" arrivalSpeed="19.92" duration="107.00" routeLength="1813.05" waitingTime="0.00" waitingCount="0" stopTime="0.00" timeLoss="21.43" rerouteNo="0" devices="tripinfo_3" vType="DEFAULT_VEHTYPE" speedFactor="0.94" vaporized=""/>
    <tripinfo id="5" depart="5.00" departLane="-260998164#3_0" departPos="5.10" departSpeed="0.00" departDelay="0.00" arrival="109.00" arrivalLane="-318908683#1_0" arrivalPos="71.22" arrivalSpeed="14.20" duration="104.00" routeLength="955.07" waitingTime="53.00" waitingCount="1" stopTime="0.00" timeLoss="68.34" rerouteNo="0" devices="tripinfo_5" vType="DEFAULT_VEHTYPE" speedFactor="1.08" vaporized=""/>
    <tripinfo id="4" depart="5.00" departLane="105681660#12_0" departPos="5.10" departSpeed="0.00" departDelay="0.00" arrival="112.00" arrivalLane="918280984_0" arrivalPos="38.78" arrivalSpeed="13.97" duration="107.00" routeLength="1405.13" waitingTime="13.00" waitingCount="1" stopTime="0.00" timeLoss="26.98" rerouteNo="0" devices="tripinfo_4" vType="DEFAULT_VEHTYPE" speedFactor="1.01" vaporized=""/>
    <tripinfo id="28" depart="31.00" departLane="918280985_0" departPos="5.10" departSpeed="0.00" departDelay="0.00" arrival="113.00" arrivalLane="260998164#0_0" arrivalPos="257.55" arrivalSpeed="24.18" duration="82.00" routeLength="1460.33" waitingTime="2.00" waitingCount="1" stopTime="0.00" timeLoss="20.40" rerouteNo="0" devices="tripinfo_28" vType="DEFAULT_VEHTYPE" speedFactor="0.92" vaporized=""/>
    <tripinfo id="15" depart="13.00" departLane="422685671#2_0" departPos="5.10" departSpeed="0.00" departDelay="0.00" arrival="117.00" arrivalLane="260998164#0_0" arrivalPos="257.55" arrivalSpeed="31.05" duration="104.00" routeLength="1329.43" waitingTime="41.00" waitingCount="1" stopTime="0.00" timeLoss="60.87" rerouteNo="0" devices="tripinfo_15" vType="DEFAULT_VEHTYPE" speedFactor="1.12" vaporized=""/>
    <tripinfo id="22" depart="21.00" departLane="597602753#0_0" departPos="5.10" departSpeed="0.00" departDelay="0.00" arrival="119.00" arrivalLane="422688976#1_0" arrivalPos="294.40" arrivalSpeed="27.16" duration="98.00" routeLength="1286.53" waitingTime="0.00" waitingCount="0" stopTime="0.00" timeLoss="20.07" rerouteNo="0" devices="tripinfo_22" vType="DEFAULT_VEHTYPE" speedFactor="1.02" vaporized=""/>
    <tripinfo id="38" depart="49.00" departLane="422685671#2_0" departPos="5.10" departSpeed="0.00" departDelay="0.00" arrival="122.00" arrivalLane="260998164#0_0" arrivalPos="257.55" arrivalSpeed="25.84" duration="73.00" routeLength="1329.43" waitingTime="6.00" waitingCount="1" stopTime="0.00" timeLoss="23.25" rerouteNo="0" devices="tripinfo_38" vType="DEFAULT_VEHTYPE" speedFactor="0.97" vaporized=""/>
    <tripinfo id="25" depart="29.00" departLane="597602753#0_0" departPos="5.10" departSpeed="0.00" departDelay="0.00" arrival="124.00" arrivalLane="-597602756#0_0" arrivalPos="325.99" arrivalSpeed="19.45" duration="95.00" routeLength="1646.04" waitingTime="0.00" waitingCount="0" stopTime="0.00" timeLoss="10.15" rerouteNo="0" devices="tripinfo_25" vType="DEFAULT_VEHTYPE" speedFactor="0.89" vaporized=""/>
    <tripinfo id="17" depart="15.00" departLane="918280985_0" departPos="5.10" departSpeed="0.00" departDelay="0.00" arrival="125.00" arrivalLane="-597602753#1_0" arrivalPos="143.59" arrivalSpeed="19.89" duration="110.00" routeLength="1123.56" waitingTime="16.00" waitingCount="1" stopTime="0.00" timeLoss="37.36" rerouteNo="0" devices="tripinfo_17" vType="DEFAULT_VEHTYPE" speedFactor="0.93" vaporized=""/>
    <tripinfo id="42" depart="51.00" departLane="422688973_0" departPos="5.10" departSpeed="0.00" departDelay="0.00" arrival="130.00" arrivalLane="-318908683#1_0" arrivalPos="71.22" arrivalSpeed="13.74" duration="79.00" routeLength="684.23" waitingTime="36.00" waitingCount="1" stopTime="0.00" timeLoss="51.22" rerouteNo="0" devices="tripinfo_42" vType="DEFAULT_VEHTYPE" speedFactor="1.03" vaporized=""/>
    <tripinfo id="40" depart="49.00" departLane="597602756#0_0" departPos="5.10" departSpeed="0.00" departDelay="0.00" arrival="132.00" arrivalLane="260998164#0_0" arrivalPos="257.55" arrivalSpeed="30.28" duration="83.00" routeLength="1239.91" waitingTime="0.00" waitingCount="0" stopTime="0.00" timeLoss="16.61" rerouteNo="0" devices="tripinfo_40" vType="DEFAULT_VEHTYPE" speedFactor="1.10" vaporized=""/>
    <tripinfo id="7" depart="8.00" departLane="918280985_0" departPos="5.10" departSpeed="0.00" departDelay="1.00" arrival="136.00" arrivalLane="-105681660#20_0" arrivalPos="806.12" arrivalSpeed="18.33" duration="128.00" routeLength="1360.98" waitingTime="23.00" waitingCount="1" stopTime="0.00" timeLoss="36.05" rerouteNo="0" devices="tripinfo_7" vType="DEFAULT_VEHTYPE" speedFactor="0.83" vaporized=""/>
    <tripinfo id="33" depart="38.00" departLane="597602756#0_0" departPos="5.10" departSpeed="0.00" departDelay="0.00" arrival="138.00" arrivalLane="-105681660#20_0" arrivalPos="806.12" arrivalSpeed="22.94" duration="100.00" routeLength="1867.67" waitingTime="0.00" waitingCount="0" stopTime="0.00" timeLoss="25.06" rerouteNo="0" devices="tripinfo_33" vType="DEFAULT_VEHTYPE" speedFactor="1.15" vaporized=""/>
    <tripinfo id="6" depart="5.00" departLane="918280985_0" departPos="5.10" departSpeed="0.00" departDelay="0.00" arrival="139.00" arrivalLane="-597602756#0_0" arrivalPos="325.99" arrivalSpeed="21.96" duration="134.00" routeLength="1890.39" waitingTime="24.00" waitingCount="1" stopTime="0.00" timeLoss="51.44" rerouteNo="0" devices="tripinfo_6" vType="DEFAULT_VEHTYPE" speedFactor="1.03" vaporized=""/>
    <tripinfo id="69" depart="83.00" departLane="918280985_0" departPos="5.10" departSpeed="0.00" departDelay="1.00" arrival="140.00" arrivalLane="-318908683#1_0" arrivalPos="71.22" arrivalSpeed="11.70" duration="57.00" routeLength="674.50" waitingTime="9.00" waitingCount="1" stopTime="0.00" timeLoss="24.38" rerouteNo="0" devices="tripinfo_69" vType="DEFAULT_VEHTYPE" speedFactor="0.91" vaporized=""/>
    <tripinfo id="2" depart="1.00" departLane="422688973_0" departPos="5.10" departSpeed="0.00" departDelay="0.00" arrival="141.00" arrivalLane="-597602756#0_0" arrivalPos="325.99" arrivalSpeed="22.32" duration="140.00" routeLength="1606.33" waitingTime="25.00" waitingCount="3" stopTime="0.00" timeLoss="56.55" rerouteNo="0" devices="tripinfo_2" vType="DEFAULT_VEHTYPE" speedFactor="1.06" vaporized=""/>
    <tripinfo id="36" depart="44.00" departLane="318908683#0_0" departPos="5.10" departSpeed="0.00" departDelay="0.00" arrival="141.00" arrivalLane="422688976#1_0" arrivalPos="294.40" arrivalSpeed="26.75" duration="97.00" routeLength="940.85" waitingTime="44.00" waitingCount="1" stopTime="0.00" timeLoss="60.18" rerouteNo="0" devices="tripinfo_36" vType="DEFAULT_VEHTYPE" speedFactor="0.99" vaporized=""/>
    <tripinfo id="23" depart="22.00" departLane="422685671#2_0" departPos="5.10" departSpeed="0.00" departDelay="0.00" arrival="148.00" arrivalLane="422688976#1_1" arrivalPos="294.40" arrivalSpeed="27.99" duration="126.00" routeLength="1317.05" waitingTime="53.00" waitingCount="1" stopTime="0.00" timeLoss="77.48" rerouteNo="0" devices="tripinfo_23" vType="DEFAULT_VEHTYPE" speedFactor="1.01" vaporized=""/>
    <tripinfo id="85" depart="105.00" departLane="918280985_0" departPos="5.10" departSpeed="0.00" departDelay="4.00" arrival="148.00" arrivalLane="-318908683#1_0" arrivalPos="71.22" arrivalSpeed="13.35" duration="43.00" routeLength="674.50" waitingTime="0.00" waitingCount="0" stopTime="0.00" timeLoss="11.55" rerouteNo="0" devices="tripinfo_85" vType="DEFAULT_VEHTYPE" speedFactor="0.97" vaporized=""/>
    <tripinfo id="66" depart="80.00" departLane="918280985_0" departPos="5.10" departSpeed="0.00" departDelay="0.00" arrival="149.00" arrivalLane="15374898#0-AddedOffRampEdge_0" arrivalPos="100.00" arrivalSpeed="24.87" duration="69.00" routeLength="996.81" waitingTime="9.00" waitingCount="1" stopTime="0.00" timeLoss="26.94" rerouteNo="0" devices="tripinfo_66" vType="DEFAULT_VEHTYPE" speedFactor="0.94" vaporized=""/>
    <tripinfo id="44" depart="54.00" departLane="-260998164#3_0" departPos="5.10" departSpeed="0.00" departDelay="0.00" arrival="151.00" arrivalLane="918280984_0" arrivalPos="38.78" arrivalSpeed="14.16" duration="97.00" routeLength="1465.15" waitingTime="22.00" waitingCount="1" stopTime="0.00" timeLoss="44.76" rerouteNo="0" devices="tripinfo_44" vType="DEFAULT_VEHTYPE" speedFactor="1.09" vaporized=""/>
    <tripinfo id="14" depart="15.00" departLane="597602756#0_0" departPos="5.10" departSpeed="0.00" departDelay="2.00" arrival="153.00" arrivalLane="918280984_0" arrivalPos="38.78" arrivalSpeed="14.07" duration="138.00" routeLength="1883.00" waitingTime="18.00" waitingCount="1" stopTime="0.00" timeLoss="48.47" rerouteNo="0" devices="tripinfo_14" vType="DEFAULT_VEHTYPE" speedFactor="1.05" vaporized=""/>
    <tripinfo id="19" depart="19.00" departLane="422685671#2_0" departPos="5.10" departSpeed="0.00" departDelay="2.00" arrival="155.00" arrivalLane="918280984_0" arrivalPos="38.78" arrivalSpeed="12.52" duration="136.00" routeLength="1069.78" waitingTime="65.00" waitingCount="2" stopTime="0.00" timeLoss="89.72" rerouteNo="0" devices="tripinfo_19" vType="DEFAULT_VEHTYPE" speedFactor="0.94" vaporized=""/>
    <tripinfo id="24" depart="26.00" departLane="422688973_0" departPos="5.10" departSpeed="0.00" departDelay="0.00" arrival="155.00" arrivalLane="-105681660#20_0" arrivalPos="806.12" arrivalSpeed="20.49" duration="129.00" routeLength="1352.23" waitingTime="37.00" waitingCount="1" stopTime="0.00" timeLoss="52.23" rerouteNo="0" devices="tripinfo_24" vType="DEFAULT_VEHTYPE" speedFactor="0.97" vaporized=""/>
    <tripinfo id="47" depart="57.00" departLane="318908683#0_0" departPos="5.10" departSpeed="0.00" departDelay="0.00" arrival="155.00" arrivalLane="260998164#0_0" arrivalPos="257.55" arrivalSpeed="29.23" duration="98.00" routeLength="939.98" waitingTime="51.00" waitingCount="1" stopTime="0.00" timeLoss="63.57" rerouteNo="0" devices="tripinfo_47" vType="DEFAULT_VEHTYPE" speedFactor="1.09" vaporized=""/>
    <tripinfo id="31" depart="35.00" departLane="422688973_0" departPos="5.10" departSpeed="0.00" departDelay="0.00" arrival="156.00" arrivalLane="-597602753#1_0" arrivalPos="143.59" arrivalSpeed="20.47" duration="121.00" routeLength="1114.81" waitingTime="30.00" waitingCount="1" stopTime="0.00" timeLoss="50.25" rerouteNo="0" devices="tripinfo_31" vType="DEFAULT_VEHTYPE" speedFactor="0.93" vaporized=""/>
    <tripinfo id="32" depart="37.00" departLane="-260998164#3_0" departPos="5.10" departSpeed="0.00" departDelay="0.00" arrival="157.00" arrivalLane="-597602753#1_0" arrivalPos="143.59" arrivalSpeed="22.50" duration="120.00" routeLength="1979.71" waitingTime="16.00" waitingCount="2" stopTime="0.00" timeLoss="50.32" rerouteNo="0" devices="tripinfo_32" vType="DEFAULT_VEHTYPE" speedFactor="1.18" vaporized=""/>
    <tripinfo id="26" depart="30.00" departLane="422685671#2_0" departPos="5.10" departSpeed="0.00" departDelay="0.00" arrival="158.00" arrivalLane="918280984_0" arrivalPos="38.78" arrivalSpeed="11.38" duration="128.00" routeLength="1069.78" waitingTime="51.00" waitingCount="2" stopTime="0.00" timeLoss="75.44" rerouteNo="0" devices="tripinfo_26" vType="DEFAULT_VEHTYPE" speedFactor="0.83" vaporized=""/>
    <tripinfo id="20" depart="18.00" departLane="597602753#0_0" departPos="5.10" departSpeed="0.00" departDelay="0.00" arrival="160.00" arrivalLane="15374898#0-AddedOffRampEdge_0" arrivalPos="100.00" arrivalSpeed="25.56" duration="142.00" routeLength="1964.42" waitingTime="4.00" waitingCount="1" stopTime="0.00" timeLoss="30.20" rerouteNo="0" devices="tripinfo_20" vType="DEFAULT_VEHTYPE" speedFactor="0.94" vaporized=""/>
    <tripinfo id="8" depart="8.00" departLane="105681660#12_0" departPos="5.10" departSpeed="0.00" departDelay="1.00" arrival="161.00" arrivalLane="15374898#0-AddedOffRampEdge_0" arrivalPos="100.00" arrivalSpeed="26.93" duration="153.00" routeLength="2308.55" waitingTime="12.00" waitingCount="1" stopTime="0.00" timeLoss="45.33" rerouteNo="0" devices="tripinfo_8" vType="DEFAULT_VEHTYPE" speedFactor="1.05" vaporized=""/>
    <tripinfo id="77" depart="92.00" departLane="318908683#0_0" departPos="5.10" departSpeed="0.00" departDelay="0.00" arrival="166.00" arrivalLane="260998164#0_0" arrivalPos="257.55" arrivalSpeed="26.63" duration="74.00" routeLength="939.98" waitingTime="21.00" waitingCount="1" stopTime="0.00" timeLoss="35.89" rerouteNo="0" devices="tripinfo_77" vType="DEFAULT_VEHTYPE" speedFactor="0.98" vaporized=""/>
    <tripinfo id="81" depart="96.00" departLane="318908683#0_0" departPos="5.10" departSpeed="0.00" departDelay="0.00" arrival="168.00" arrivalLane="260998164#0_0" arrivalPos="257.55" arrivalSpeed="30.04" duration="72.00" routeLength="939.98" waitingTime="21.00" waitingCount="1" stopTime="0.00" timeLoss="36.76" rerouteNo="0" devices="tripinfo_81" vType="DEFAULT_VEHTYPE" speedFactor="1.09" vaporized=""/>
    <tripinfo id="61" depart="72.00" departLane="-260998164#3_0" departPos="5.10" departSpeed="0.00" departDelay="0.00" arrival="172.00" arrivalLane="-597602756#0_0" arrivalPos="325.99" arrivalSpeed="20.79" duration="100.00" routeLength="1420.33" waitingTime="0.00" waitingCount="0" stopTime="0.00" timeLoss="17.30" rerouteNo="0" devices="tripinfo_61" vType="DEFAULT_VEHTYPE" speedFactor="0.97" vaporized=""/>
    <tripinfo id="90" depart="109.00" departLane="318908683#0_0" departPos="5.10" departSpeed="0.00" departDelay="0.00" arrival="172.00" arrivalLane="260998164#0_0" arrivalPos="257.55" arrivalSpeed="26.89" duration="63.00" routeLength="939.98" waitingTime="11.00" waitingCount="1" stopTime="0.00" timeLoss="25.33" rerouteNo="0" devices="tripinfo_90" vType="DEFAULT_VEHTYPE" speedFactor="1.01" vaporized=""/>
    <tripinfo id="13" depart="17.00" departLane="105681660#12_0" departPos="5.10" departSpeed="0.00" departDelay="5.00" arrival="174.00" arrivalLane="918280984_0" arrivalPos="38.78" arrivalSpeed="14.20" duration="157.00" routeLength="1405.13" waitingTime="42.00" waitingCount="2" stopTime="0.00" timeLoss="77.61" rerouteNo="0" devices="tripinfo_13" vType="DEFAULT_VEHTYPE" speedFactor="1.03" vaporized=""/>
    <tripinfo id="99" depart="114.00" departLane="422688973_0" departPos="5.10" departSpeed="0.00" departDelay="0.00" arrival="175.00" arrivalLane="15374898#0-AddedOffRampEdge_0" arrivalPos="100.00" arrivalSpeed="24.00" duration="61.00" routeLength="1006.54" waitingTime="0.00" waitingCount="0" stopTime="0.00" timeLoss="20.35" rerouteNo="0" devices="tripinfo_99" vType="DEFAULT_VEHTYPE" speedFactor="0.91" vaporized=""/>
    <tripinfo id="37" depart="44.00" departLane="597602753#0_0" departPos="5.10" departSpeed="0.00" departDelay="0.00" arrival="179.00" arrivalLane="422688976#1_0" arrivalPos="294.40" arrivalSpeed="27.13" duration="135.00" routeLength="1286.53" waitingTime="38.00" waitingCount="1" stopTime="0.00" timeLoss="57.96" rerouteNo="0" devices="tripinfo_37" vType="DEFAULT_VEHTYPE" speedFactor="1.02" vaporized=""/>
    <tripinfo id="48" depart="60.00" departLane="597602753#0_0" departPos="5.10" departSpeed="0.00" departDelay="0.00" arrival="180.00" arrivalLane="918280984_0" arrivalPos="38.78" arrivalSpeed="12.75" duration="120.00" routeLength="1061.00" waitingTime="28.00" waitingCount="1" stopTime="0.00" timeLoss="47.72" rerouteNo="0" devices="tripinfo_48" vType="DEFAULT_VEHTYPE" speedFactor="1.00" vaporized=""/>
    <tripinfo id="30" depart="33.00" departLane="105681660#12_0" departPos="5.10" departSpeed="0.00" departDelay="0.00" arrival="185.00" arrivalLane="422688976#1_0" arrivalPos="294.40" arrivalSpeed="30.18" duration="152.00" routeLength="1630.66" waitingTime="34.00" waitingCount="2" stopTime="0.00" timeLoss="74.80" rerouteNo="0" devices="tripinfo_30" vType="DEFAULT_VEHTYPE" speedFactor="1.13" vaporized=""/>
    <tripinfo id="18" depart="16.00" departLane="422685671#2_0" departPos="5.10" departSpeed="0.00" departDelay="0.00" arrival="188.00" arrivalLane="-105681660#20_0" arrivalPos="806.12" arrivalSpeed="18.33" duration="172.00" routeLength="1813.05" waitingTime="55.00" waitingCount="1" stopTime="0.00" timeLoss="80.25" rerouteNo="0" devices="tripinfo_18" vType="DEFAULT_VEHTYPE" speedFactor="0.88" vaporized=""/>
    <tripinfo id="39" depart="49.00" departLane="422688973_0" departPos="5.10" departSpeed="0.00" departDelay="0.00" arrival="189.00" arrivalLane="-105681660#20_0" arrivalPos="806.12" arrivalSpeed="21.03" duration="140.00" routeLength="1352.23" waitingTime="36.00" waitingCount="3" stopTime="0.00" timeLoss="76.56" rerouteNo="0" devices="tripinfo_39" vType="DEFAULT_VEHTYPE" speedFactor="1.18" vaporized=""/>
    <tripinfo id="80" depart="96.00" departLane="597602756#0_0" departPos="5.10" departSpeed="0.00" departDelay="0.00" arrival="193.00" arrivalLane="260998164#0_0" arrivalPos="257.55" arrivalSpeed="27.30" duration="97.00" routeLength="1716.95" waitingTime="0.00" waitingCount="0" stopTime="0.00" timeLoss="14.13" rerouteNo="0" devices="tripinfo_80" vType="DEFAULT_VEHTYPE" speedFactor="1.01" vaporized=""/>
    <tripinfo id="58" depart="71.00" departLane="918280985_0" departPos="5.10" departSpeed="0.00" departDelay="3.00" arrival="195.00" arrivalLane="-105681660#20_0" arrivalPos="806.12" arrivalSpeed="19.87" duration="124.00" routeLength="1360.98" waitingTime="18.00" waitingCount="2" stopTime="0.00" timeLoss="38.55" rerouteNo="0" devices="tripinfo_58" vType="DEFAULT_VEHTYPE" speedFactor="0.90" vaporized=""/>
    <tripinfo id="16" depart="14.00" departLane="597602753#0_0" departPos="5.10" departSpeed="0.00" departDelay="0.00" arrival="196.00" arrivalLane="260998164#0_0" arrivalPos="257.55" arrivalSpeed="26.37" duration="182.00" routeLength="2427.94" waitingTime="27.00" waitingCount="1" stopTime="0.00" timeLoss="59.11" rerouteNo="0" devices="tripinfo_16" vType="DEFAULT_VEHTYPE" speedFactor="0.99" vaporized=""/>
    <tripinfo id="55" depart="66.00" departLane="422688973_0" departPos="5.10" departSpeed="0.00" departDelay="0.00" arrival="196.00" arrivalLane="-597602753#1_0" arrivalPos="143.59" arrivalSpeed="24.00" duration="130.00" routeLength="1128.03" waitingTime="24.00" waitingCount="3" stopTime="0.00" timeLoss="58.91" rerouteNo="0" devices="tripinfo_55" vType="DEFAULT_VEHTYPE" speedFactor="1.10" vaporized=""/>
    <tripinfo id="67" depart="81.00" departLane="-260998164#3_0" departPos="5.10" departSpeed="0.00" departDelay="0.00" arrival="196.00" arrivalLane="15374898#0-AddedOffRampEdge_1" arrivalPos="100.00" arrivalSpeed="23.48" duration="115.00" routeLength="1332.80" waitingTime="43.00" waitingCount="1" stopTime="0.00" timeLoss="60.02" rerouteNo="0" devices="tripinfo_67" vType="DEFAULT_VEHTYPE" speedFactor="0.88" vaporized=""/>
    <tripinfo id="53" depart="64.00" departLane="597602756#0_0" departPos="5.10" departSpeed="0.00" departDelay="0.00" arrival="197.00" arrivalLane="15374898#0-AddedOffRampEdge_1" arrivalPos="100.00" arrivalSpeed="25.52" duration="133.00" routeLength="1760.61" waitingTime="28.00" waitingCount="1" stopTime="0.00" timeLoss="59.87" rerouteNo="0" devices="tripinfo_53" vType="DEFAULT_VEHTYPE" speedFactor="1.17" vaporized=""/>
    <tripinfo id="57" depart="68.00" departLane="918280985_0" departPos="5.10" departSpeed="0.00" departDelay="1.00" arrival="197.00" arrivalLane="260998164#0_0" arrivalPos="257.55" arrivalSpeed="27.56" duration="129.00" routeLength="1460.33" waitingTime="44.00" waitingCount="2" stopTime="0.00" timeLoss="71.91" rerouteNo="0" devices="tripinfo_57" vType="DEFAULT_VEHTYPE" speedFactor="1.00" vaporized=""/>
    <tripinfo id="95" depart="117.00" departLane="-260998164#3_0" departPos="5.10" departSpeed="0.00" departDelay="6.00" arrival="199.00" arrivalLane="15374898#0-AddedOffRampEdge_1" arrivalPos="100.00" arrivalSpeed="24.39" duration="82.00" routeLength="1332.80" waitingTime="12.00" waitingCount="1" stopTime="0.00" timeLoss="29.48" rerouteNo="0" devices="tripinfo_95" vType="DEFAULT_VEHTYPE" speedFactor="0.92" vaporized=""/>
    <tripinfo id="35" depart="43.00" departLane="105681660#12_0" departPos="5.10" departSpeed="0.00" departDelay="2.00" arrival="200.00" arrivalLane="-318908683#1_0" arrivalPos="71.22" arrivalSpeed="15.27" duration="157.00" routeLength="1835.34" waitingTime="26.00" waitingCount="3" stopTime="0.00" timeLoss="72.63" rerouteNo="0" devices="tripinfo_35" vType="DEFAULT_VEHTYPE" speedFactor="1.17" vaporized=""/>
    <tripinfo id="79" depart="102.00" departLane="918280985_0" departPos="5.10" departSpeed="0.00" departDelay="7.00" arrival="200.00" arrivalLane="260998164#0_0" arrivalPos="257.55" arrivalSpeed="27.04" duration="98.00" routeLength="1460.33" waitingTime="16.00" waitingCount="1" stopTime="0.00" timeLoss="39.52" rerouteNo="0" devices="tripinfo_79" vType="DEFAULT_VEHTYPE" speedFactor="0.98" vaporized=""/>
    <tripinfo id="96" depart="122.00" departLane="-260998164#3_0" departPos="5.10" departSpeed="0.00" departDelay="10.00" arrival="200.00" arrivalLane="15374898#0-AddedOffRampEdge_0" arrivalPos="100.00" arrivalSpeed="26.61" duration="78.00" routeLength="1332.80" waitingTime="5.00" waitingCount="1" stopTime="0.00" timeLoss="33.23" rerouteNo="0" devices="tripinfo_96" vType="DEFAULT_VEHTYPE" speedFactor="1.09" vaporized=""/>
    <tripinfo id="65" depart="80.00" departLane="318908683#0_0" departPos="5.10" departSpeed="0.00" departDelay="0.00" arrival="201.00" arrivalLane="-597602753#1_0" arrivalPos="143.59" arrivalSpeed="21.45" duration="121.00" routeLength="1208.14" waitingTime="32.00" waitingCount="1" stopTime="0.00" timeLoss="63.55" rerouteNo="0" devices="tripinfo_65" vType="DEFAULT_VEHTYPE" speedFactor="0.99" vaporized=""/>
    <tripinfo id="98" depart="125.00" departLane="-260998164#3_0" departPos="5.10" departSpeed="0.00" departDelay="11.00" arrival="202.00" arrivalLane="-318908683#1_0" arrivalPos="71.22" arrivalSpeed="13.69" duration="77.00" routeLength="955.07" waitingTime="22.00" waitingCount="1" stopTime="0.00" timeLoss="38.36" rerouteNo="0" devices="tripinfo_98" vType="DEFAULT_VEHTYPE" speedFactor="1.01" vaporized=""/>
    <tripinfo id="60" depart="70.00" departLane="597602756#0_0" departPos="5.10" departSpeed="0.00" departDelay="0.00" arrival="204.00" arrivalLane="-318908683#1_0" arrivalPos="71.22" arrivalSpeed="13.26" duration="134.00" routeLength="1382.88" waitingTime="35.00" waitingCount="2" stopTime="0.00" timeLoss="59.59" rerouteNo="0" devices="tripinfo_60" vType="DEFAULT_VEHTYPE" speedFactor="1.02" vaporized=""/>
    <tripinfo id="100" depart="114.00" departLane="318908683#0_0" departPos="5.10" departSpeed="0.00" departDelay="0.00" arrival="205.00" arrivalLane="-597602756#0_0" arrivalPos="325.99" arrivalSpeed="24.59" duration="91.00" routeLength="1401.85" waitingTime="8.00" waitingCount="1" stopTime="0.00" timeLoss="32.18" rerouteNo="0" devices="tripinfo_100" vType="DEFAULT_VEHTYPE" speedFactor="1.12" vaporized=""/>
    <tripinfo id="45" depart="56.00" departLane="105681660#12_0" departPos="5.10" departSpeed="0.00" departDelay="0.00" arrival="206.00" arrivalLane="260998164#0_0" arrivalPos="257.55" arrivalSpeed="28.12" duration="150.00" routeLength="2169.41" waitingTime="14.00" waitingCount="2" stopTime="0.00" timeLoss="47.63" rerouteNo="0" devices="tripinfo_45" vType="DEFAULT_VEHTYPE" speedFactor="1.04" vaporized=""/>
    <tripinfo id="125" depart="145.00" departLane="-260998164#3_0" departPos="5.10" departSpeed="0.00" departDelay="0.00" arrival="206.00" arrivalLane="-318908683#1_0" arrivalPos="71.22" arrivalSpeed="13.23" duration="61.00" routeLength="955.07" waitingTime="6.00" waitingCount="1" stopTime="0.00" timeLoss="22.68" rerouteNo="0" devices="tripinfo_125" vType="DEFAULT_VEHTYPE" speedFactor="1.02" vaporized=""/>
    <tripinfo id="43" depart="54.00" departLane="422688973_0" departPos="5.10" departSpeed="0.00" departDelay="0.00" arrival="207.00" arrivalLane="-597602753#1_0" arrivalPos="143.59" arrivalSpeed="20.87" duration="153.00" routeLength="1128.03" waitingTime="32.00" waitingCount="2" stopTime="0.00" timeLoss="72.62" rerouteNo="0" devices="tripinfo_43" vType="DEFAULT_VEHTYPE" speedFactor="0.96" vaporized=""/>
    <tripinfo id="63" depart="77.00" departLane="422685671#2_0" departPos="5.10" departSpeed="0.00" departDelay="0.00" arrival="210.00" arrivalLane="422688976#1_0" arrivalPos="294.40" arrivalSpeed="30.55" duration="133.00" routeLength="1317.05" waitingTime="47.00" waitingCount="2" stopTime="0.00" timeLoss="88.85" rerouteNo="0" devices="tripinfo_63" vType="DEFAULT_VEHTYPE" speedFactor="1.12" vaporized=""/>
    <tripinfo id="92" depart="112.00" departLane="105681660#12_0" departPos="5.10" departSpeed="0.00" departDelay="3.00" arrival="210.00" arrivalLane="-597602753#1_0" arrivalPos="143.59" arrivalSpeed="21.84" duration="98.00" routeLength="1380.56" waitingTime="14.00" waitingCount="1" stopTime="0.00" timeLoss="35.71" rerouteNo="0" devices="tripinfo_92" vType="DEFAULT_VEHTYPE" speedFactor="1.02" vaporized=""/>
    <tripinfo id="52" depart="64.00" departLane="422685671#2_0" departPos="5.10" departSpeed="0.00" departDelay="0.00" arrival="211.00" arrivalLane="-105681660#20_0" arrivalPos="806.12" arrivalSpeed="18.56" duration="147.00" routeLength="1813.05" waitingTime="22.00" waitingCount="2" stopTime="0.00" timeLoss="53.50" rerouteNo="0" devices="tripinfo_52" vType="DEFAULT_VEHTYPE" speedFactor="0.85" vaporized=""/>
    <tripinfo id="84" depart="100.00" departLane="-260998164#3_0" departPos="5.10" departSpeed="0.00" departDelay="0.00" arrival="211.00" arrivalLane="422688976#1_0" arrivalPos="294.40" arrivalSpeed="27.38" duration="111.00" routeLength="1702.46" waitingTime="19.00" waitingCount="2" stopTime="0.00" timeLoss="49.81" rerouteNo="0" devices="tripinfo_84" vType="DEFAULT_VEHTYPE" speedFactor="1.02" vaporized=""/>
    <tripinfo id="110" depart="129.00" departLane="318908683#0_0" departPos="5.10" departSpeed="0.00" departDelay="3.00" arrival="211.00" arrivalLane="-597602756#0_0" arrivalPos="325.99" arrivalSpeed="23.52" duration="82.00" routeLength="1401.85" waitingTime="0.00" waitingCount="0" stopTime="0.00" timeLoss="19.50" rerouteNo="0" devices="tripinfo_110" vType="DEFAULT_VEHTYPE" speedFactor="1.06" vaporized=""/>