<?xml version="1.0" encoding="UTF-8"?>

<!-- generated on 2023-04-30 00:44:49 by Eclipse SUMO sumo Version 1.16.0
<configuration xmlns:xsi="http://www.w3.org/2001/XMLSchema-instance" xsi:noNamespaceSchemaLocation="http://sumo.dlr.de/xsd/sumoConfiguration.xsd">

    <input>
        <net-file value="C:\Users\Local_Man\Desktop\Stolen%20Music\school%20stuff%20for%20college\Semester%2015%20(UH%20Graduate%20School)\COSC%206364%20Nikolaos\SUMO_Project\COSC6364_Project\configurations\maps\Braess_Homebrew_fixed1.net.xml"/>
        <route-files value="./configurations/Rounds/Braess_Homebrew_fixed1.net.xml-test-4/Macroscopic_DUE/006/Trips_File_006.rou.xml"/>
    </input>

    <output>
        <summary-output value="./configurations/Rounds/Braess_Homebrew_fixed1.net.xml-test-4/Macroscopic_DUE/006/summary.xml"/>
        <tripinfo-output value="./configurations/Rounds/Braess_Homebrew_fixed1.net.xml-test-4/Macroscopic_DUE/006/trips.trips.xml"/>
        <statistic-output value="./configurations/Rounds/Braess_Homebrew_fixed1.net.xml-test-4/Macroscopic_DUE/006/stats_output.xml"/>
    </output>

    <time>
        <begin value="0"/>
    </time>

    <report>
        <log value="./configurations/Rounds/Braess_Homebrew_fixed1.net.xml-test-4/Macroscopic_DUE/006/log.sumo.log"/>
        <no-step-log value="true"/>
    </report>

    <gui_only>
        <quit-on-end value="true"/>
    </gui_only>

</configuration>
-->

<tripinfos xmlns:xsi="http://www.w3.org/2001/XMLSchema-instance" xsi:noNamespaceSchemaLocation="http://sumo.dlr.de/xsd/tripinfo_file.xsd">
    <tripinfo id="2" depart="4.00" departLane="E0_0" departPos="5.10" departSpeed="19.50" departDelay="0.00" arrival="97.00" arrivalLane="E3_0" arrivalPos="90.46" arrivalSpeed="28.39" duration="93.00" routeLength="1314.99" waitingTime="0.00" waitingCount="0" stopTime="0.00" timeLoss="9.23" rerouteNo="0" devices="tripinfo_2" vType="DEFAULT_VEHTYPE" speedFactor="0.98" vaporized=""/>
    <tripinfo id="4" depart="10.00" departLane="E0_0" departPos="5.10" departSpeed="24.01" departDelay="0.00" arrival="99.00" arrivalLane="E3_0" arrivalPos="90.46" arrivalSpeed="32.02" duration="89.00" routeLength="1314.99" waitingTime="0.00" waitingCount="0" stopTime="0.00" timeLoss="20.16" rerouteNo="0" devices="tripinfo_4" vType="DEFAULT_VEHTYPE" speedFactor="1.20" vaporized=""/>
    <tripinfo id="5" depart="11.00" departLane="E0_0" departPos="5.10" departSpeed="20.92" departDelay="1.00" arrival="102.00" arrivalLane="E3_0" arrivalPos="90.46" arrivalSpeed="31.12" duration="91.00" routeLength="1314.99" waitingTime="0.00" waitingCount="0" stopTime="0.00" timeLoss="11.86" rerouteNo="0" devices="tripinfo_5" vType="DEFAULT_VEHTYPE" speedFactor="1.05" vaporized=""/>
    <tripinfo id="7" depart="13.00" departLane="E0_0" departPos="5.10" departSpeed="16.81" departDelay="2.00" arrival="114.00" arrivalLane="E3_0" arrivalPos="90.46" arrivalSpeed="27.34" duration="101.00" routeLength="1314.99" waitingTime="0.00" waitingCount="0" stopTime="0.00" timeLoss="12.90" rerouteNo="0" devices="tripinfo_7" vType="DEFAULT_VEHTYPE" speedFactor="0.94" vaporized=""/>
    <tripinfo id="9" depart="15.00" departLane="E0_0" departPos="5.10" departSpeed="10.39" departDelay="1.00" arrival="115.00" arrivalLane="E3_0" arrivalPos="90.46" arrivalSpeed="29.77" duration="100.00" routeLength="1314.99" waitingTime="0.00" waitingCount="0" stopTime="0.00" timeLoss="24.64" rerouteNo="0" devices="tripinfo_9" vType="DEFAULT_VEHTYPE" speedFactor="1.09" vaporized=""/>
    <tripinfo id="10" depart="17.00" departLane="E0_0" departPos="5.10" departSpeed="11.85" departDelay="0.00" arrival="123.00" arrivalLane="E3_0" arrivalPos="90.46" arrivalSpeed="26.90" duration="106.00" routeLength="1314.99" waitingTime="0.00" waitingCount="0" stopTime="0.00" timeLoss="16.95" rerouteNo="0" devices="tripinfo_10" vType="DEFAULT_VEHTYPE" speedFactor="0.92" vaporized=""/>
    <tripinfo id="13" depart="21.00" departLane="E0_0" departPos="5.10" departSpeed="4.81" departDelay="2.00" arrival="130.00" arrivalLane="E3_0" arrivalPos="90.46" arrivalSpeed="26.95" duration="109.00" routeLength="1314.99" waitingTime="0.00" waitingCount="0" stopTime="0.00" timeLoss="19.93" rerouteNo="0" devices="tripinfo_13" vType="DEFAULT_VEHTYPE" speedFactor="0.93" vaporized=""/>
    <tripinfo id="15" depart="25.00" departLane="E0_0" departPos="5.10" departSpeed="3.88" departDelay="5.00" arrival="135.00" arrivalLane="E3_0" arrivalPos="90.46" arrivalSpeed="27.12" duration="110.00" routeLength="1314.99" waitingTime="0.00" waitingCount="0" stopTime="0.00" timeLoss="21.52" rerouteNo="0" devices="tripinfo_15" vType="DEFAULT_VEHTYPE" speedFactor="0.94" vaporized=""/>
    <tripinfo id="16" depart="27.00" departLane="E0_0" departPos="5.10" departSpeed="4.47" departDelay="7.00" arrival="136.00" arrivalLane="E3_0" arrivalPos="90.46" arrivalSpeed="29.34" duration="109.00" routeLength="1314.99" waitingTime="0.00" waitingCount="0" stopTime="0.00" timeLoss="32.80" rerouteNo="0" devices="tripinfo_16" vType="DEFAULT_VEHTYPE" speedFactor="1.08" vaporized=""/>
    <tripinfo id="17" depart="29.00" departLane="E0_0" departPos="5.10" departSpeed="1.80" departDelay="7.00" arrival="137.00" arrivalLane="E3_0" arrivalPos="90.46" arrivalSpeed="28.97" duration="108.00" routeLength="1314.99" waitingTime="0.00" waitingCount="0" stopTime="0.00" timeLoss="26.87" rerouteNo="0" devices="tripinfo_17" vType="DEFAULT_VEHTYPE" speedFactor="1.01" vaporized=""/>
    <tripinfo id="18" depart="32.00" departLane="E0_0" departPos="5.10" departSpeed="4.95" departDelay="9.00" arrival="139.00" arrivalLane="E3_0" arrivalPos="90.46" arrivalSpeed="30.15" duration="107.00" routeLength="1314.99" waitingTime="0.00" waitingCount="0" stopTime="0.00" timeLoss="26.78" rerouteNo="0" devices="tripinfo_18" vType="DEFAULT_VEHTYPE" speedFactor="1.03" vaporized=""/>
    <tripinfo id="19" depart="34.00" departLane="E0_0" departPos="5.10" departSpeed="4.95" departDelay="10.00" arrival="149.00" arrivalLane="E3_0" arrivalPos="90.46" arrivalSpeed="25.49" duration="115.00" routeLength="1314.99" waitingTime="0.00" waitingCount="0" stopTime="0.00" timeLoss="22.51" rerouteNo="0" devices="tripinfo_19" vType="DEFAULT_VEHTYPE" speedFactor="0.89" vaporized=""/>
    <tripinfo id="26" depart="51.00" departLane="E0_0" departPos="5.10" departSpeed="6.35" departDelay="19.00" arrival="150.00" arrivalLane="E3_0" arrivalPos="90.46" arrivalSpeed="28.81" duration="99.00" routeLength="1314.99" waitingTime="0.00" waitingCount="0" stopTime="0.00" timeLoss="26.03" rerouteNo="0" devices="tripinfo_26" vType="DEFAULT_VEHTYPE" speedFactor="1.12" vaporized=""/>
    <tripinfo id="29" depart="57.00" departLane="E0_0" departPos="5.10" departSpeed="1.20" departDelay="24.00" arrival="158.00" arrivalLane="E3_0" arrivalPos="90.46" arrivalSpeed="29.64" duration="101.00" routeLength="1314.99" waitingTime="0.00" waitingCount="0" stopTime="0.00" timeLoss="20.34" rerouteNo="0" devices="tripinfo_29" vType="DEFAULT_VEHTYPE" speedFactor="1.02" vaporized=""/>
    <tripinfo id="30" depart="61.00" departLane="E0_0" departPos="5.10" departSpeed="6.65" departDelay="27.00" arrival="167.00" arrivalLane="E3_0" arrivalPos="90.46" arrivalSpeed="28.03" duration="106.00" routeLength="1314.99" waitingTime="0.00" waitingCount="0" stopTime="0.00" timeLoss="19.19" rerouteNo="0" devices="tripinfo_30" vType="DEFAULT_VEHTYPE" speedFactor="0.94" vaporized=""/>
    <tripinfo id="31" depart="63.00" departLane="E0_0" departPos="5.10" departSpeed="7.26" departDelay="29.00" arrival="169.00" arrivalLane="E3_0" arrivalPos="90.46" arrivalSpeed="32.00" duration="106.00" routeLength="1314.99" waitingTime="0.00" waitingCount="0" stopTime="0.00" timeLoss="31.34" rerouteNo="0" devices="tripinfo_31" vType="DEFAULT_VEHTYPE" speedFactor="1.10" vaporized=""/>
    <tripinfo id="3" depart="5.00" departLane="E0_0" departPos="5.10" departSpeed="16.96" departDelay="1.00" arrival="179.00" arrivalLane="E3_0" arrivalPos="90.46" arrivalSpeed="23.94" duration="174.00" routeLength="1317.38" waitingTime="71.00" waitingCount="1" stopTime="0.00" timeLoss="94.70" rerouteNo="0" devices="tripinfo_3" vType="DEFAULT_VEHTYPE" speedFactor="1.08" vaporized=""/>
    <tripinfo id="32" depart="65.00" departLane="E0_0" departPos="5.10" departSpeed="5.98" departDelay="30.00" arrival="183.00" arrivalLane="E3_0" arrivalPos="90.46" arrivalSpeed="24.71" duration="118.00" routeLength="1314.99" waitingTime="0.00" waitingCount="0" stopTime="0.00" timeLoss="20.10" rerouteNo="0" devices="tripinfo_32" vType="DEFAULT_VEHTYPE" speedFactor="0.83" vaporized=""/>
    <tripinfo id="34" depart="70.00" departLane="E0_0" departPos="5.10" departSpeed="2.34" departDelay="34.00" arrival="185.00" arrivalLane="E3_0" arrivalPos="90.46" arrivalSpeed="27.33" duration="115.00" routeLength="1314.99" waitingTime="0.00" waitingCount="0" stopTime="0.00" timeLoss="37.52" rerouteNo="0" devices="tripinfo_34" vType="DEFAULT_VEHTYPE" speedFactor="1.07" vaporized=""/>
    <tripinfo id="6" depart="12.00" departLane="E0_0" departPos="5.10" departSpeed="18.89" departDelay="2.00" arrival="196.00" arrivalLane="E3_0" arrivalPos="90.46" arrivalSpeed="24.55" duration="184.00" routeLength="1317.38" waitingTime="76.00" waitingCount="2" stopTime="0.00" timeLoss="104.68" rerouteNo="0" devices="tripinfo_6" vType="DEFAULT_VEHTYPE" speedFactor="1.08" vaporized=""/>
    <tripinfo id="36" depart="75.00" departLane="E0_0" departPos="5.10" departSpeed="7.12" departDelay="35.00" arrival="201.00" arrivalLane="E3_0" arrivalPos="90.46" arrivalSpeed="22.91" duration="126.00" routeLength="1314.99" waitingTime="0.00" waitingCount="0" stopTime="0.00" timeLoss="19.22" rerouteNo="0" devices="tripinfo_36" vType="DEFAULT_VEHTYPE" speedFactor="0.77" vaporized=""/>
    <tripinfo id="38" depart="79.00" departLane="E0_0" departPos="5.10" departSpeed="8.47" departDelay="33.00" arrival="202.00" arrivalLane="E3_0" arrivalPos="90.46" arrivalSpeed="25.35" duration="123.00" routeLength="1314.99" waitingTime="0.00" waitingCount="0" stopTime="0.00" timeLoss="42.73" rerouteNo="0" devices="tripinfo_38" vType="DEFAULT_VEHTYPE" speedFactor="1.02" vaporized=""/>
    <tripinfo id="39" depart="80.00" departLane="E0_0" departPos="5.10" departSpeed="3.50" departDelay="34.00" arrival="204.00" arrivalLane="E3_0" arrivalPos="90.46" arrivalSpeed="25.79" duration="124.00" routeLength="1314.99" waitingTime="0.00" waitingCount="0" stopTime="0.00" timeLoss="29.89" rerouteNo="0" devices="tripinfo_39" vType="DEFAULT_VEHTYPE" speedFactor="0.88" vaporized=""/>
    <tripinfo id="40" depart="82.00" departLane="E0_0" departPos="5.10" departSpeed="2.02" departDelay="31.00" arrival="205.00" arrivalLane="E3_0" arrivalPos="90.46" arrivalSpeed="26.35" duration="123.00" routeLength="1314.99" waitingTime="0.00" waitingCount="0" stopTime="0.00" timeLoss="45.83" rerouteNo="0" devices="tripinfo_40" vType="DEFAULT_VEHTYPE" speedFactor="1.06" vaporized=""/>
    <tripinfo id="42" depart="87.00" departLane="E0_0" departPos="5.10" departSpeed="4.99" departDelay="34.00" arrival="206.00" arrivalLane="E3_0" arrivalPos="90.46" arrivalSpeed="27.08" duration="119.00" routeLength="1314.99" waitingTime="0.00" waitingCount="0" stopTime="0.00" timeLoss="40.70" rerouteNo="0" devices="tripinfo_42" vType="DEFAULT_VEHTYPE" speedFactor="1.05" vaporized=""/>
    <tripinfo id="43" depart="89.00" departLane="E0_0" departPos="5.10" departSpeed="4.78" departDelay="34.00" arrival="208.00" arrivalLane="E3_0" arrivalPos="90.46" arrivalSpeed="27.90" duration="119.00" routeLength="1314.99" waitingTime="0.00" waitingCount="0" stopTime="0.00" timeLoss="36.93" rerouteNo="0" devices="tripinfo_43" vType="DEFAULT_VEHTYPE" speedFactor="1.00" vaporized=""/>
    <tripinfo id="44" depart="91.00" departLane="E0_0" departPos="5.10" departSpeed="0.51" departDelay="36.00" arrival="209.00" arrivalLane="E3_0" arrivalPos="90.46" arrivalSpeed="26.95" duration="118.00" routeLength="1314.99" waitingTime="0.00" waitingCount="0" stopTime="0.00" timeLoss="43.45" rerouteNo="0" devices="tripinfo_44" vType="DEFAULT_VEHTYPE" speedFactor="1.10" vaporized=""/>
    <tripinfo id="45" depart="95.00" departLane="E0_0" departPos="5.10" departSpeed="3.98" departDelay="39.00" arrival="211.00" arrivalLane="E3_0" arrivalPos="90.46" arrivalSpeed="26.12" duration="116.00" routeLength="1314.99" waitingTime="0.00" waitingCount="0" stopTime="0.00" timeLoss="24.87" rerouteNo="0" devices="tripinfo_45" vType="DEFAULT_VEHTYPE" speedFactor="0.90" vaporized=""/>
    <tripinfo id="46" depart="97.00" departLane="E0_0" departPos="5.10" departSpeed="2.27" departDelay="41.00" arrival="212.00" arrivalLane="E3_0" arrivalPos="90.46" arrivalSpeed="27.67" duration="115.00" routeLength="1314.99" waitingTime="0.00" waitingCount="0" stopTime="0.00" timeLoss="30.00" rerouteNo="0" devices="tripinfo_46" vType="DEFAULT_VEHTYPE" speedFactor="0.96" vaporized=""/>
    <tripinfo id="50" depart="107.00" departLane="E0_0" departPos="5.10" departSpeed="0.07" departDelay="43.00" arrival="214.00" arrivalLane="E3_0" arrivalPos="90.46" arrivalSpeed="29.72" duration="107.00" routeLength="1314.99" waitingTime="1.00" waitingCount="1" stopTime="0.00" timeLoss="24.63" rerouteNo="0" devices="tripinfo_50" vType="DEFAULT_VEHTYPE" speedFactor="1.00" vaporized=""/>
    <tripinfo id="51" depart="111.00" departLane="E0_0" departPos="5.10" departSpeed="6.56" departDelay="44.00" arrival="215.00" arrivalLane="E3_0" arrivalPos="90.46" arrivalSpeed="28.90" duration="104.00" routeLength="1314.99" waitingTime="0.00" waitingCount="0" stopTime="0.00" timeLoss="21.14" rerouteNo="0" devices="tripinfo_51" vType="DEFAULT_VEHTYPE" speedFactor="0.99" vaporized=""/>
    <tripinfo id="8" depart="14.00" departLane="E0_0" departPos="5.10" departSpeed="14.10" departDelay="3.00" arrival="224.00" arrivalLane="E3_0" arrivalPos="90.46" arrivalSpeed="24.46" duration="210.00" routeLength="1317.38" waitingTime="92.00" waitingCount="3" stopTime="0.00" timeLoss="125.55" rerouteNo="0" devices="tripinfo_8" vType="DEFAULT_VEHTYPE" speedFactor="1.02" vaporized=""/>
    <tripinfo id="53" depart="115.00" departLane="E0_0" departPos="5.10" departSpeed="8.25" departDelay="46.00" arrival="227.00" arrivalLane="E3_0" arrivalPos="90.46" arrivalSpeed="26.00" duration="112.00" routeLength="1314.99" waitingTime="0.00" waitingCount="0" stopTime="0.00" timeLoss="20.87" rerouteNo="0" devices="tripinfo_53" vType="DEFAULT_VEHTYPE" speedFactor="0.91" vaporized=""/>
    <tripinfo id="54" depart="116.00" departLane="E0_0" departPos="5.10" departSpeed="3.41" departDelay="42.00" arrival="228.00" arrivalLane="E3_0" arrivalPos="90.46" arrivalSpeed="27.52" duration="112.00" routeLength="1314.99" waitingTime="0.00" waitingCount="0" stopTime="0.00" timeLoss="25.15" rerouteNo="0" devices="tripinfo_54" vType="DEFAULT_VEHTYPE" speedFactor="0.95" vaporized=""/>
    <tripinfo id="56" depart="122.00" departLane="E0_0" departPos="5.10" departSpeed="4.82" departDelay="47.00" arrival="232.00" arrivalLane="E3_0" arrivalPos="90.46" arrivalSpeed="26.78" duration="110.00" routeLength="1314.99" waitingTime="0.00" waitingCount="0" stopTime="0.00" timeLoss="20.94" rerouteNo="0" devices="tripinfo_56" vType="DEFAULT_VEHTYPE" speedFactor="0.93" vaporized=""/>
    <tripinfo id="62" depart="137.00" departLane="E0_0" departPos="5.10" departSpeed="4.34" departDelay="57.00" arrival="246.00" arrivalLane="E3_0" arrivalPos="90.46" arrivalSpeed="26.12" duration="109.00" routeLength="1314.99" waitingTime="0.00" waitingCount="0" stopTime="0.00" timeLoss="17.33" rerouteNo="0" devices="tripinfo_62" vType="DEFAULT_VEHTYPE" speedFactor="0.90" vaporized=""/>
    <tripinfo id="64" depart="142.00" departLane="E0_0" departPos="5.10" departSpeed="5.47" departDelay="59.00" arrival="247.00" arrivalLane="E3_0" arrivalPos="90.46" arrivalSpeed="27.30" duration="105.00" routeLength="1314.99" waitingTime="0.00" waitingCount="0" stopTime="0.00" timeLoss="29.32" rerouteNo="0" devices="tripinfo_64" vType="DEFAULT_VEHTYPE" speedFactor="1.08" vaporized=""/>
    <tripinfo id="65" depart="144.00" departLane="E0_0" departPos="5.10" departSpeed="5.69" departDelay="61.00" arrival="249.00" arrivalLane="E3_0" arrivalPos="90.46" arrivalSpeed="28.25" duration="105.00" routeLength="1314.99" waitingTime="0.00" waitingCount="0" stopTime="0.00" timeLoss="20.43" rerouteNo="0" devices="tripinfo_65" vType="DEFAULT_VEHTYPE" speedFactor="0.98" vaporized=""/>
    <tripinfo id="66" depart="146.00" departLane="E0_0" departPos="5.10" departSpeed="6.17" departDelay="60.00" arrival="250.00" arrivalLane="E3_0" arrivalPos="90.46" arrivalSpeed="29.02" duration="104.00" routeLength="1314.99" waitingTime="0.00" waitingCount="0" stopTime="0.00" timeLoss="20.31" rerouteNo="0" devices="tripinfo_66" vType="DEFAULT_VEHTYPE" speedFactor="0.98" vaporized=""/>
    <tripinfo id="68" depart="150.00" departLane="E0_0" departPos="5.10" departSpeed="5.03" departDelay="63.00" arrival="258.00" arrivalLane="E3_0" arrivalPos="90.46" arrivalSpeed="27.01" duration="108.00" routeLength="1314.99" waitingTime="0.00" waitingCount="0" stopTime="0.00" timeLoss="20.55" rerouteNo="0" devices="tripinfo_68" vType="DEFAULT_VEHTYPE" speedFactor="0.94" vaporized=""/>
    <tripinfo id="75" depart="166.00" departLane="E0_0" departPos="5.10" departSpeed="9.27" departDelay="75.00" arrival="261.00" arrivalLane="E3_0" arrivalPos="90.46" arrivalSpeed="32.84" duration="95.00" routeLength="1314.99" waitingTime="0.00" waitingCount="0" stopTime="0.00" timeLoss="19.85" rerouteNo="0" devices="tripinfo_75" vType="DEFAULT_VEHTYPE" speedFactor="1.10" vaporized=""/>
    <tripinfo id="76" depart="167.00" departLane="E0_0" departPos="5.10" departSpeed="5.47" departDelay="76.00" arrival="262.00" arrivalLane="E3_0" arrivalPos="90.46" arrivalSpeed="34.18" duration="95.00" routeLength="1314.99" waitingTime="0.00" waitingCount="0" stopTime="0.00" timeLoss="23.22" rerouteNo="0" devices="tripinfo_76" vType="DEFAULT_VEHTYPE" speedFactor="1.14" vaporized=""/>
    <tripinfo id="80" depart="178.00" departLane="E0_0" departPos="5.10" departSpeed="6.78" departDelay="84.00" arrival="271.00" arrivalLane="E3_0" arrivalPos="90.46" arrivalSpeed="31.90" duration="93.00" routeLength="1314.99" waitingTime="0.00" waitingCount="0" stopTime="0.00" timeLoss="16.86" rerouteNo="0" devices="tripinfo_80" vType="DEFAULT_VEHTYPE" speedFactor="1.08" vaporized=""/>
    <tripinfo id="83" depart="184.00" departLane="E0_0" departPos="5.10" departSpeed="1.53" departDelay="85.00" arrival="280.00" arrivalLane="E3_0" arrivalPos="90.46" arrivalSpeed="31.07" duration="96.00" routeLength="1314.99" waitingTime="0.00" waitingCount="0" stopTime="0.00" timeLoss="18.27" rerouteNo="0" devices="tripinfo_83" vType="DEFAULT_VEHTYPE" speedFactor="1.06" vaporized=""/>
    <tripinfo id="86" depart="192.00" departLane="E0_0" departPos="5.10" departSpeed="5.72" departDelay="88.00" arrival="290.00" arrivalLane="E3_0" arrivalPos="90.46" arrivalSpeed="29.58" duration="98.00" routeLength="1314.99" waitingTime="0.00" waitingCount="0" stopTime="0.00" timeLoss="17.09" rerouteNo="0" devices="tripinfo_86" vType="DEFAULT_VEHTYPE" speedFactor="1.02" vaporized=""/>
    <tripinfo id="89" depart="198.00" departLane="E0_0" departPos="5.10" departSpeed="8.64" departDelay="92.00" arrival="291.00" arrivalLane="E3_0" arrivalPos="90.46" arrivalSpeed="32.61" duration="93.00" routeLength="1314.99" waitingTime="0.00" waitingCount="0" stopTime="0.00" timeLoss="23.02" rerouteNo="0" devices="tripinfo_89" vType="DEFAULT_VEHTYPE" speedFactor="1.18" vaporized=""/>
    <tripinfo id="11" depart="18.00" departLane="E0_0" departPos="5.10" departSpeed="7.71" departDelay="0.00" arrival="301.00" arrivalLane="E3_0" arrivalPos="90.46" arrivalSpeed="23.94" duration="283.00" routeLength="1317.38" waitingTime="158.00" waitingCount="4" stopTime="0.00" timeLoss="206.33" rerouteNo="0" devices="tripinfo_11" vType="DEFAULT_VEHTYPE" speedFactor="1.12" vaporized=""/>
    <tripinfo id="92" depart="204.00" departLane="E0_0" departPos="5.10" departSpeed="4.58" departDelay="96.00" arrival="306.00" arrivalLane="E3_0" arrivalPos="90.46" arrivalSpeed="28.09" duration="102.00" routeLength="1314.99" waitingTime="0.00" waitingCount="0" stopTime="0.00" timeLoss="18.16" rerouteNo="0" devices="tripinfo_92" vType="DEFAULT_VEHTYPE" speedFactor="0.98" vaporized=""/>
    <tripinfo id="93" depart="206.00" departLane="E0_0" departPos="5.10" departSpeed="3.09" departDelay="97.00" arrival="312.00" arrivalLane="E3_0" arrivalPos="90.46" arrivalSpeed="27.46" duration="106.00" routeLength="1314.99" waitingTime="0.00" waitingCount="0" stopTime="0.00" timeLoss="18.99" rerouteNo="0" devices="tripinfo_93" vType="DEFAULT_VEHTYPE" speedFactor="0.94" vaporized=""/>
    <tripinfo id="94" depart="209.00" departLane="E0_0" departPos="5.10" departSpeed="5.00" departDelay="100.00" arrival="314.00" arrivalLane="E3_0" arrivalPos="90.46" arrivalSpeed="30.00" duration="105.00" routeLength="1314.99" waitingTime="0.00" waitingCount="0" stopTime="0.00" timeLoss="24.89" rerouteNo="0" devices="tripinfo_94" vType="DEFAULT_VEHTYPE" speedFactor="1.03" vaporized=""/>
    <tripinfo id="96" depart="213.00" departLane="E0_0" departPos="5.10" departSpeed="4.59" departDelay="101.00" arrival="324.00" arrivalLane="E3_0" arrivalPos="90.46" arrivalSpeed="26.47" duration="111.00" routeLength="1314.99" waitingTime="0.00" waitingCount="0" stopTime="0.00" timeLoss="17.99" rerouteNo="0" devices="tripinfo_96" vType="DEFAULT_VEHTYPE" speedFactor="0.89" vaporized=""/>
    <tripinfo id="100" depart="222.00" departLane="E0_0" departPos="5.10" departSpeed="1.68" departDelay="104.00" arrival="325.00" arrivalLane="E3_0" arrivalPos="90.46" arrivalSpeed="27.31" duration="103.00" routeLength="1314.99" waitingTime="0.00" waitingCount="0" stopTime="0.00" timeLoss="28.76" rerouteNo="0" devices="tripinfo_100" vType="DEFAULT_VEHTYPE" speedFactor="1.10" vaporized=""/>
    <tripinfo id="12" depart="20.00" departLane="E0_0" departPos="5.10" departSpeed="8.71" departDelay="2.00" arrival="334.00" arrivalLane="E3_0" arrivalPos="90.46" arrivalSpeed="23.61" duration="314.00" routeLength="1317.38" waitingTime="170.00" waitingCount="5" stopTime="0.00" timeLoss="219.02" rerouteNo="0" devices="tripinfo_12" vType="DEFAULT_VEHTYPE" speedFactor="0.90" vaporized=""/>
    <tripinfo id="102" depart="228.00" departLane="E0_0" departPos="5.10" departSpeed="6.54" departDelay="108.00" arrival="342.00" arrivalLane="E3_0" arrivalPos="90.46" arrivalSpeed="24.33" duration="114.00" routeLength="1314.99" waitingTime="0.00" waitingCount="0" stopTime="0.00" timeLoss="16.12" rerouteNo="0" devices="tripinfo_102" vType="DEFAULT_VEHTYPE" speedFactor="0.84" vaporized=""/>
    <tripinfo id="104" depart="232.00" departLane="E0_0" departPos="5.10" departSpeed="6.71" departDelay="111.00" arrival="344.00" arrivalLane="E3_0" arrivalPos="90.46" arrivalSpeed="29.12" duration="112.00" routeLength="1314.99" waitingTime="0.00" waitingCount="0" stopTime="0.00" timeLoss="32.18" rerouteNo="0" devices="tripinfo_104" vType="DEFAULT_VEHTYPE" speedFactor="1.04" vaporized=""/>
    <tripinfo id="106" depart="236.00" departLane="E0_0" departPos="5.10" departSpeed="7.81" departDelay="115.00" arrival="345.00" arrivalLane="E3_0" arrivalPos="90.46" arrivalSpeed="28.63" duration="109.00" routeLength="1314.99" waitingTime="0.00" waitingCount="0" stopTime="0.00" timeLoss="22.56" rerouteNo="0" devices="tripinfo_106" vType="DEFAULT_VEHTYPE" speedFactor="0.95" vaporized=""/>
    <tripinfo id="110" depart="244.00" departLane="E0_0" departPos="5.10" departSpeed="3.47" departDelay="118.00" arrival="346.00" arrivalLane="E3_0" arrivalPos="90.46" arrivalSpeed="29.32" duration="102.00" routeLength="1314.99" waitingTime="0.00" waitingCount="0" stopTime="0.00" timeLoss="21.25" rerouteNo="0" devices="tripinfo_110" vType="DEFAULT_VEHTYPE" speedFactor="1.01" vaporized=""/>
    <tripinfo id="111" depart="247.00" departLane="E0_0" departPos="5.10" departSpeed="4.60" departDelay="118.00" arrival="348.00" arrivalLane="E3_0" arrivalPos="90.46" arrivalSpeed="29.65" duration="101.00" routeLength="1314.99" waitingTime="0.00" waitingCount="0" stopTime="0.00" timeLoss="27.91" rerouteNo="0" devices="tripinfo_111" vType="DEFAULT_VEHTYPE" speedFactor="1.13" vaporized=""/>
    <tripinfo id="113" depart="251.00" departLane="E0_0" departPos="5.10" departSpeed="3.72" departDelay="120.00" arrival="361.00" arrivalLane="E3_0" arrivalPos="90.46" arrivalSpeed="26.03" duration="110.00" routeLength="1314.99" waitingTime="0.00" waitingCount="0" stopTime="0.00" timeLoss="16.77" rerouteNo="0" devices="tripinfo_113" vType="DEFAULT_VEHTYPE" speedFactor="0.89" vaporized=""/>
    <tripinfo id="114" depart="254.00" departLane="E0_0" departPos="5.10" departSpeed="5.91" departDelay="123.00" arrival="362.00" arrivalLane="E3_0" arrivalPos="90.46" arrivalSpeed="27.79" duration="108.00" routeLength="1314.99" waitingTime="0.00" waitingCount="0" stopTime="0.00" timeLoss="22.59" rerouteNo="0" devices="tripinfo_114" vType="DEFAULT_VEHTYPE" speedFactor="0.97" vaporized=""/>
    <tripinfo id="115" depart="256.00" departLane="E0_0" departPos="5.10" departSpeed="6.63" departDelay="125.00" arrival="363.00" arrivalLane="E3_0" arrivalPos="90.46" arrivalSpeed="28.06" duration="107.00" routeLength="1314.99" waitingTime="0.00" waitingCount="0" stopTime="0.00" timeLoss="28.13" rerouteNo="0" devices="tripinfo_115" vType="DEFAULT_VEHTYPE" speedFactor="1.04" vaporized=""/>
    <tripinfo id="120" depart="266.00" departLane="E0_0" departPos="5.10" departSpeed="1.10" departDelay="130.00" arrival="365.00" arrivalLane="E3_0" arrivalPos="90.46" arrivalSpeed="30.03" duration="99.00" routeLength="1314.99" waitingTime="0.00" waitingCount="0" stopTime="0.00" timeLoss="17.30" rerouteNo="0" devices="tripinfo_120" vType="DEFAULT_VEHTYPE" speedFactor="1.01" vaporized=""/>
    <tripinfo id="122" depart="272.00" departLane="E0_0" departPos="5.10" departSpeed="6.37" departDelay="135.00" arrival="371.00" arrivalLane="E3_0" arrivalPos="90.46" arrivalSpeed="28.66" duration="99.00" routeLength="1314.99" waitingTime="0.00" waitingCount="0" stopTime="0.00" timeLoss="15.90" rerouteNo="0" devices="tripinfo_122" vType="DEFAULT_VEHTYPE" speedFactor="1.00" vaporized=""/>
    <tripinfo id="14" depart="23.00" departLane="E0_0" departPos="5.10" departSpeed="3.78" departDelay="4.00" arrival="377.00" arrivalLane="E3_0" arrivalPos="90.46" arrivalSpeed="24.46" duration="354.00" routeLength="1317.38" waitingTime="204.00" waitingCount="6" stopTime="0.00" timeLoss="271.48" rerouteNo="0" devices="tripinfo_14" vType="DEFAULT_VEHTYPE" speedFactor="1.04" vaporized=""/>
    <tripinfo id="20" depart="36.00" departLane="E0_0" departPos="5.10" departSpeed="5.19" departDelay="12.00" arrival="379.00" arrivalLane="E3_0" arrivalPos="90.46" arrivalSpeed="22.87" duration="343.00" routeLength="1317.38" waitingTime="196.00" waitingCount="6" stopTime="0.00" timeLoss="258.10" rerouteNo="0" devices="tripinfo_20" vType="DEFAULT_VEHTYPE" speedFactor="1.01" vaporized=""/>
    <tripinfo id="21" depart="38.00" departLane="E0_0" departPos="5.10" departSpeed="2.06" departDelay="13.00" arrival="381.00" arrivalLane="E3_0" arrivalPos="90.46" arrivalSpeed="24.79" duration="343.00" routeLength="1317.38" waitingTime="180.00" waitingCount="6" stopTime="0.00" timeLoss="244.97" rerouteNo="0" devices="tripinfo_21" vType="DEFAULT_VEHTYPE" speedFactor="0.87" vaporized=""/>
    <tripinfo id="22" depart="41.00" departLane="E0_0" departPos="5.10" departSpeed="5.41" departDelay="15.00" arrival="383.00" arrivalLane="E3_0" arrivalPos="90.46" arrivalSpeed="25.58" duration="342.00" routeLength="1317.38" waitingTime="177.00" waitingCount="6" stopTime="0.00" timeLoss="258.65" rerouteNo="0" devices="tripinfo_22" vType="DEFAULT_VEHTYPE" speedFactor="1.03" vaporized=""/>
    <tripinfo id="23" depart="43.00" departLane="E0_0" departPos="5.10" departSpeed="2.11" departDelay="14.00" arrival="385.00" arrivalLane="E3_0" arrivalPos="90.46" arrivalSpeed="26.38" duration="342.00" routeLength="1317.38" waitingTime="174.00" waitingCount="6" stopTime="0.00" timeLoss="266.02" rerouteNo="0" devices="tripinfo_23" vType="DEFAULT_VEHTYPE" speedFactor="1.13" vaporized=""/>
    <tripinfo id="24" depart="46.00" departLane="E0_0" departPos="5.10" departSpeed="4.77" departDelay="17.00" arrival="387.00" arrivalLane="E3_0" arrivalPos="90.46" arrivalSpeed="25.24" duration="341.00" routeLength="1317.38" waitingTime="172.00" waitingCount="6" stopTime="0.00" timeLoss="245.50" rerouteNo="0" devices="tripinfo_24" vType="DEFAULT_VEHTYPE" speedFactor="0.89" vaporized=""/>
    <tripinfo id="124" depart="276.00" departLane="E0_0" departPos="5.10" departSpeed="7.94" departDelay="137.00" arrival="395.00" arrivalLane="E3_0" arrivalPos="90.46" arrivalSpeed="24.07" duration="119.00" routeLength="1314.99" waitingTime="0.00" waitingCount="0" stopTime="0.00" timeLoss="16.40" rerouteNo="0" devices="tripinfo_124" vType="DEFAULT_VEHTYPE" speedFactor="0.80" vaporized=""/>
    <tripinfo id="126" depart="280.00" departLane="E0_0" departPos="5.10" departSpeed="5.87" departDelay="140.00" arrival="396.00" arrivalLane="E3_0" arrivalPos="90.46" arrivalSpeed="24.46" duration="116.00" routeLength="1314.99" waitingTime="0.00" waitingCount="0" stopTime="0.00" timeLoss="31.42" rerouteNo="0" devices="tripinfo_126" vType="DEFAULT_VEHTYPE" speedFactor="0.97" vaporized=""/>
    <tripinfo id="127" depart="282.00" departLane="E0_0" departPos="5.10" departSpeed="5.88" departDelay="140.00" arrival="397.00" arrivalLane="E3_0" arrivalPos="90.46" arrivalSpeed="25.21" duration="115.00" routeLength="1314.99" waitingTime="0.00" waitingCount="0" stopTime="0.00" timeLoss="25.28" rerouteNo="0" devices="tripinfo_127" vType="DEFAULT_VEHTYPE" speedFactor="0.91" vaporized=""/>