<?xml version="1.0" encoding="UTF-8"?>

<!-- generated on 2023-04-28 21:04:49 by Eclipse SUMO sumo Version 1.16.0
<configuration xmlns:xsi="http://www.w3.org/2001/XMLSchema-instance" xsi:noNamespaceSchemaLocation="http://sumo.dlr.de/xsd/sumoConfiguration.xsd">

    <input>
        <net-file value="000/../configurations/maps/Braess_Homebrew_fixed1.net.xml"/>
        <route-files value="000/Trips_File_000.rou.xml"/>
        <additional-files value="000/../edgedata.add.xml"/>
    </input>

    <output>
        <output-prefix value="000/"/>
        <summary-output value="000/../summary_000.xml"/>
        <tripinfo-output value="000/../tripinfo_000.xml"/>
    </output>

    <time>
        <begin value="0"/>
    </time>

    <processing>
        <route-steps value="200"/>
        <no-internal-links value="False"/>
        <time-to-teleport value="300"/>
        <time-to-teleport.highways value="0"/>
        <eager-insert value="False"/>
    </processing>

    <report>
        <verbose value="true"/>
        <no-warnings value="False"/>
        <log value="000/../iteration_000.sumo.log"/>
        <no-step-log value="true"/>
    </report>

    <mesoscopic>
        <mesosim value="true"/>
        <meso-recheck value="0"/>
    </mesoscopic>

    <random_number>
        <random value="False"/>
    </random_number>

</configuration>
-->

<tripinfos xmlns:xsi="http://www.w3.org/2001/XMLSchema-instance" xsi:noNamespaceSchemaLocation="http://sumo.dlr.de/xsd/tripinfo_file.xsd">
    <tripinfo id="2" depart="1.00" departLane="" departPos="0.00" departSpeed="21.20" departDelay="0.00" arrival="73.00" arrivalLane="" arrivalPos="90.46" arrivalSpeed="31.80" duration="72.00" routeLength="1188.76" waitingTime="0.00" waitingCount="0" stopTime="0.00" timeLoss="0.00" rerouteNo="0" devices="tripinfo_2" vType="DEFAULT_VEHTYPE" speedFactor="1.06" vaporized=""/>
    <tripinfo id="3" depart="4.00" departLane="" departPos="0.00" departSpeed="18.77" departDelay="0.00" arrival="85.00" arrivalLane="" arrivalPos="90.46" arrivalSpeed="28.15" duration="81.00" routeLength="1188.76" waitingTime="0.00" waitingCount="0" stopTime="0.00" timeLoss="0.00" rerouteNo="0" devices="tripinfo_3" vType="DEFAULT_VEHTYPE" speedFactor="0.94" vaporized=""/>
    <tripinfo id="4" depart="5.00" departLane="" departPos="0.00" departSpeed="17.48" departDelay="0.00" arrival="86.00" arrivalLane="" arrivalPos="90.46" arrivalSpeed="28.59" duration="81.00" routeLength="1188.76" waitingTime="0.37" waitingCount="0" stopTime="0.00" timeLoss="6.12" rerouteNo="0" devices="tripinfo_4" vType="DEFAULT_VEHTYPE" speedFactor="1.01" vaporized=""/>
    <tripinfo id="5" depart="6.00" departLane="" departPos="0.00" departSpeed="16.36" departDelay="0.00" arrival="88.00" arrivalLane="" arrivalPos="90.46" arrivalSpeed="29.05" duration="82.00" routeLength="1188.76" waitingTime="0.37" waitingCount="0" stopTime="0.00" timeLoss="11.49" rerouteNo="0" devices="tripinfo_5" vType="DEFAULT_VEHTYPE" speedFactor="1.08" vaporized=""/>
    <tripinfo id="6" depart="6.00" departLane="" departPos="0.00" departSpeed="13.73" departDelay="0.00" arrival="89.00" arrivalLane="" arrivalPos="90.46" arrivalSpeed="29.52" duration="83.00" routeLength="1188.76" waitingTime="0.37" waitingCount="0" stopTime="0.00" timeLoss="9.32" rerouteNo="0" devices="tripinfo_6" vType="DEFAULT_VEHTYPE" speedFactor="1.03" vaporized=""/>
    <tripinfo id="7" depart="8.00" departLane="" departPos="0.00" departSpeed="14.49" departDelay="1.00" arrival="102.00" arrivalLane="" arrivalPos="90.46" arrivalSpeed="24.93" duration="94.00" routeLength="1188.76" waitingTime="0.37" waitingCount="0" stopTime="0.00" timeLoss="2.63" rerouteNo="0" devices="tripinfo_7" vType="DEFAULT_VEHTYPE" speedFactor="0.83" vaporized=""/>
    <tripinfo id="8" depart="11.00" departLane="" departPos="0.00" departSpeed="17.43" departDelay="4.00" arrival="103.00" arrivalLane="" arrivalPos="90.46" arrivalSpeed="25.28" duration="92.00" routeLength="1188.76" waitingTime="0.37" waitingCount="0" stopTime="0.00" timeLoss="19.67" rerouteNo="0" devices="tripinfo_8" vType="DEFAULT_VEHTYPE" speedFactor="1.05" vaporized=""/>
    <tripinfo id="9" depart="13.00" departLane="" departPos="0.00" departSpeed="17.72" departDelay="5.00" arrival="105.00" arrivalLane="" arrivalPos="90.46" arrivalSpeed="25.63" duration="92.00" routeLength="1188.76" waitingTime="0.37" waitingCount="0" stopTime="0.00" timeLoss="6.03" rerouteNo="0" devices="tripinfo_9" vType="DEFAULT_VEHTYPE" speedFactor="0.89" vaporized=""/>
    <tripinfo id="10" depart="15.00" departLane="" departPos="0.00" departSpeed="18.76" departDelay="7.00" arrival="106.00" arrivalLane="" arrivalPos="90.46" arrivalSpeed="26.00" duration="91.00" routeLength="1188.76" waitingTime="0.37" waitingCount="0" stopTime="0.00" timeLoss="10.13" rerouteNo="0" devices="tripinfo_10" vType="DEFAULT_VEHTYPE" speedFactor="0.94" vaporized=""/>
    <tripinfo id="11" depart="17.00" departLane="" departPos="0.00" departSpeed="17.14" departDelay="8.00" arrival="109.00" arrivalLane="" arrivalPos="90.46" arrivalSpeed="25.71" duration="92.00" routeLength="1188.76" waitingTime="0.37" waitingCount="0" stopTime="0.00" timeLoss="3.04" rerouteNo="0" devices="tripinfo_11" vType="DEFAULT_VEHTYPE" speedFactor="0.86" vaporized=""/>
    <tripinfo id="12" depart="18.00" departLane="" departPos="0.00" departSpeed="16.06" departDelay="7.00" arrival="110.00" arrivalLane="" arrivalPos="90.46" arrivalSpeed="26.08" duration="92.00" routeLength="1188.76" waitingTime="0.37" waitingCount="0" stopTime="0.00" timeLoss="22.30" rerouteNo="0" devices="tripinfo_12" vType="DEFAULT_VEHTYPE" speedFactor="1.09" vaporized=""/>
    <tripinfo id="13" depart="20.00" departLane="" departPos="0.00" departSpeed="17.12" departDelay="9.00" arrival="111.00" arrivalLane="" arrivalPos="90.46" arrivalSpeed="26.46" duration="91.00" routeLength="1188.76" waitingTime="0.37" waitingCount="0" stopTime="0.00" timeLoss="17.34" rerouteNo="0" devices="tripinfo_13" vType="DEFAULT_VEHTYPE" speedFactor="1.03" vaporized=""/>
    <tripinfo id="14" depart="22.00" departLane="" departPos="0.00" departSpeed="18.32" departDelay="10.00" arrival="113.00" arrivalLane="" arrivalPos="90.46" arrivalSpeed="26.85" duration="91.00" routeLength="1188.76" waitingTime="0.37" waitingCount="0" stopTime="0.00" timeLoss="18.18" rerouteNo="0" devices="tripinfo_14" vType="DEFAULT_VEHTYPE" speedFactor="1.05" vaporized=""/>
    <tripinfo id="15" depart="24.00" departLane="" departPos="0.00" departSpeed="19.71" departDelay="12.00" arrival="114.00" arrivalLane="" arrivalPos="90.46" arrivalSpeed="27.26" duration="90.00" routeLength="1188.76" waitingTime="0.37" waitingCount="0" stopTime="0.00" timeLoss="22.43" rerouteNo="0" devices="tripinfo_15" vType="DEFAULT_VEHTYPE" speedFactor="1.12" vaporized=""/>
    <tripinfo id="16" depart="26.00" departLane="" departPos="0.00" departSpeed="19.82" departDelay="12.00" arrival="116.00" arrivalLane="" arrivalPos="90.46" arrivalSpeed="27.67" duration="90.00" routeLength="1188.76" waitingTime="0.37" waitingCount="0" stopTime="0.00" timeLoss="12.87" rerouteNo="0" devices="tripinfo_16" vType="DEFAULT_VEHTYPE" speedFactor="0.99" vaporized=""/>
    <tripinfo id="17" depart="28.00" departLane="" departPos="0.00" departSpeed="18.54" departDelay="13.00" arrival="118.00" arrivalLane="" arrivalPos="90.46" arrivalSpeed="27.80" duration="90.00" routeLength="1188.76" waitingTime="0.37" waitingCount="0" stopTime="0.00" timeLoss="7.89" rerouteNo="0" devices="tripinfo_17" vType="DEFAULT_VEHTYPE" speedFactor="0.93" vaporized=""/>
    <tripinfo id="18" depart="30.00" departLane="" departPos="0.00" departSpeed="17.57" departDelay="14.00" arrival="121.00" arrivalLane="" arrivalPos="90.46" arrivalSpeed="26.35" duration="91.00" routeLength="1188.76" waitingTime="0.37" waitingCount="0" stopTime="0.00" timeLoss="4.68" rerouteNo="0" devices="tripinfo_18" vType="DEFAULT_VEHTYPE" speedFactor="0.88" vaporized=""/>
    <tripinfo id="19" depart="32.00" departLane="" departPos="0.00" departSpeed="18.83" departDelay="15.00" arrival="123.00" arrivalLane="" arrivalPos="90.46" arrivalSpeed="26.74" duration="91.00" routeLength="1188.76" waitingTime="0.37" waitingCount="0" stopTime="0.00" timeLoss="9.81" rerouteNo="0" devices="tripinfo_19" vType="DEFAULT_VEHTYPE" speedFactor="0.94" vaporized=""/>
    <tripinfo id="20" depart="34.00" departLane="" departPos="0.00" departSpeed="18.72" departDelay="17.00" arrival="124.00" arrivalLane="" arrivalPos="90.46" arrivalSpeed="27.14" duration="90.00" routeLength="1188.76" waitingTime="0.37" waitingCount="0" stopTime="0.00" timeLoss="8.75" rerouteNo="0" devices="tripinfo_20" vType="DEFAULT_VEHTYPE" speedFactor="0.94" vaporized=""/>
    <tripinfo id="21" depart="35.00" departLane="" departPos="0.00" departSpeed="17.44" departDelay="18.00" arrival="125.00" arrivalLane="" arrivalPos="90.46" arrivalSpeed="27.55" duration="90.00" routeLength="1188.76" waitingTime="0.37" waitingCount="0" stopTime="0.00" timeLoss="24.59" rerouteNo="0" devices="tripinfo_21" vType="DEFAULT_VEHTYPE" speedFactor="1.16" vaporized=""/>
    <tripinfo id="22" depart="37.00" departLane="" departPos="0.00" departSpeed="18.70" departDelay="20.00" arrival="127.00" arrivalLane="" arrivalPos="90.46" arrivalSpeed="27.98" duration="90.00" routeLength="1188.76" waitingTime="0.37" waitingCount="0" stopTime="0.00" timeLoss="14.99" rerouteNo="0" devices="tripinfo_22" vType="DEFAULT_VEHTYPE" speedFactor="1.02" vaporized=""/>
    <tripinfo id="23" depart="39.00" departLane="" departPos="0.00" departSpeed="20.15" departDelay="21.00" arrival="128.00" arrivalLane="" arrivalPos="90.46" arrivalSpeed="28.42" duration="89.00" routeLength="1188.76" waitingTime="0.37" waitingCount="0" stopTime="0.00" timeLoss="13.80" rerouteNo="0" devices="tripinfo_23" vType="DEFAULT_VEHTYPE" speedFactor="1.01" vaporized=""/>
    <tripinfo id="24" depart="41.00" departLane="" departPos="0.00" departSpeed="19.50" departDelay="23.00" arrival="130.00" arrivalLane="" arrivalPos="90.46" arrivalSpeed="29.25" duration="89.00" routeLength="1188.76" waitingTime="0.37" waitingCount="0" stopTime="0.00" timeLoss="10.81" rerouteNo="0" devices="tripinfo_24" vType="DEFAULT_VEHTYPE" speedFactor="0.97" vaporized=""/>
    <tripinfo id="25" depart="43.00" departLane="" departPos="0.00" departSpeed="17.79" departDelay="23.00" arrival="134.00" arrivalLane="" arrivalPos="90.46" arrivalSpeed="26.68" duration="91.00" routeLength="1188.76" waitingTime="0.37" waitingCount="0" stopTime="0.00" timeLoss="5.58" rerouteNo="0" devices="tripinfo_25" vType="DEFAULT_VEHTYPE" speedFactor="0.89" vaporized=""/>
    <tripinfo id="26" depart="45.00" departLane="" departPos="0.00" departSpeed="16.51" departDelay="24.00" arrival="138.00" arrivalLane="" arrivalPos="90.46" arrivalSpeed="24.77" duration="93.00" routeLength="1188.76" waitingTime="0.37" waitingCount="0" stopTime="0.00" timeLoss="1.28" rerouteNo="0" devices="tripinfo_26" vType="DEFAULT_VEHTYPE" speedFactor="0.83" vaporized=""/>
    <tripinfo id="27" depart="47.00" departLane="" departPos="0.00" departSpeed="17.45" departDelay="25.00" arrival="140.00" arrivalLane="" arrivalPos="90.46" arrivalSpeed="25.11" duration="93.00" routeLength="1188.76" waitingTime="0.37" waitingCount="0" stopTime="0.00" timeLoss="5.58" rerouteNo="0" devices="tripinfo_27" vType="DEFAULT_VEHTYPE" speedFactor="0.87" vaporized=""/>
    <tripinfo id="28" depart="49.00" departLane="" departPos="0.00" departSpeed="18.34" departDelay="27.00" arrival="141.00" arrivalLane="" arrivalPos="90.46" arrivalSpeed="25.47" duration="92.00" routeLength="1188.76" waitingTime="0.37" waitingCount="0" stopTime="0.00" timeLoss="9.17" rerouteNo="0" devices="tripinfo_28" vType="DEFAULT_VEHTYPE" speedFactor="0.92" vaporized=""/>
    <tripinfo id="29" depart="50.00" departLane="" departPos="0.00" departSpeed="17.11" departDelay="26.00" arrival="142.00" arrivalLane="" arrivalPos="90.46" arrivalSpeed="25.83" duration="92.00" routeLength="1188.76" waitingTime="0.37" waitingCount="0" stopTime="0.00" timeLoss="12.29" rerouteNo="0" devices="tripinfo_29" vType="DEFAULT_VEHTYPE" speedFactor="0.95" vaporized=""/>
    <tripinfo id="30" depart="52.00" departLane="" departPos="0.00" departSpeed="18.32" departDelay="27.00" arrival="144.00" arrivalLane="" arrivalPos="90.46" arrivalSpeed="26.21" duration="92.00" routeLength="1188.76" waitingTime="0.37" waitingCount="0" stopTime="0.00" timeLoss="24.54" rerouteNo="0" devices="tripinfo_30" vType="DEFAULT_VEHTYPE" speedFactor="1.13" vaporized=""/>
    <tripinfo id="31" depart="54.00" departLane="" departPos="0.00" departSpeed="18.63" departDelay="28.00" arrival="145.00" arrivalLane="" arrivalPos="90.46" arrivalSpeed="26.59" duration="91.00" routeLength="1188.76" waitingTime="0.37" waitingCount="0" stopTime="0.00" timeLoss="9.56" rerouteNo="0" devices="tripinfo_31" vType="DEFAULT_VEHTYPE" speedFactor="0.93" vaporized=""/>
    <tripinfo id="32" depart="56.00" departLane="" departPos="0.00" departSpeed="20.07" departDelay="30.00" arrival="147.00" arrivalLane="" arrivalPos="90.46" arrivalSpeed="26.99" duration="91.00" routeLength="1188.76" waitingTime="0.37" waitingCount="0" stopTime="0.00" timeLoss="25.95" rerouteNo="0" devices="tripinfo_32" vType="DEFAULT_VEHTYPE" speedFactor="1.18" vaporized=""/>
    <tripinfo id="33" depart="58.00" departLane="" departPos="0.00" departSpeed="21.74" departDelay="28.00" arrival="148.00" arrivalLane="" arrivalPos="90.46" arrivalSpeed="27.40" duration="90.00" routeLength="1188.76" waitingTime="0.37" waitingCount="0" stopTime="0.00" timeLoss="23.99" rerouteNo="0" devices="tripinfo_33" vType="DEFAULT_VEHTYPE" speedFactor="1.15" vaporized=""/>
    <tripinfo id="34" depart="60.00" departLane="" departPos="0.00" departSpeed="20.10" departDelay="29.00" arrival="149.00" arrivalLane="" arrivalPos="90.46" arrivalSpeed="27.82" duration="89.00" routeLength="1188.76" waitingTime="0.37" waitingCount="0" stopTime="0.00" timeLoss="13.66" rerouteNo="0" devices="tripinfo_34" vType="DEFAULT_VEHTYPE" speedFactor="1.01" vaporized=""/>
    <tripinfo id="35" depart="62.00" departLane="" departPos="0.00" departSpeed="21.79" departDelay="25.00" arrival="151.00" arrivalLane="" arrivalPos="90.46" arrivalSpeed="28.25" duration="89.00" routeLength="1188.76" waitingTime="0.37" waitingCount="0" stopTime="0.00" timeLoss="23.72" rerouteNo="0" devices="tripinfo_35" vType="DEFAULT_VEHTYPE" speedFactor="1.17" vaporized=""/>
    <tripinfo id="36" depart="64.00" departLane="" departPos="0.00" departSpeed="19.89" departDelay="26.00" arrival="152.00" arrivalLane="" arrivalPos="90.46" arrivalSpeed="29.84" duration="88.00" routeLength="1188.76" waitingTime="0.37" waitingCount="0" stopTime="0.00" timeLoss="11.77" rerouteNo="0" devices="tripinfo_36" vType="DEFAULT_VEHTYPE" speedFactor="0.99" vaporized=""/>
    <tripinfo id="37" depart="65.00" departLane="" departPos="0.00" departSpeed="18.45" departDelay="27.00" arrival="154.00" arrivalLane="" arrivalPos="90.46" arrivalSpeed="30.35" duration="89.00" routeLength="1188.76" waitingTime="0.37" waitingCount="0" stopTime="0.00" timeLoss="14.00" rerouteNo="0" devices="tripinfo_37" vType="DEFAULT_VEHTYPE" speedFactor="1.02" vaporized=""/>
    <tripinfo id="38" depart="67.00" departLane="" departPos="0.00" departSpeed="19.46" departDelay="29.00" arrival="156.00" arrivalLane="" arrivalPos="90.46" arrivalSpeed="29.20" duration="89.00" routeLength="1188.76" waitingTime="0.37" waitingCount="0" stopTime="0.00" timeLoss="11.37" rerouteNo="0" devices="tripinfo_38" vType="DEFAULT_VEHTYPE" speedFactor="0.97" vaporized=""/>
    <tripinfo id="39" depart="69.00" departLane="" departPos="0.00" departSpeed="21.04" departDelay="30.00" arrival="158.00" arrivalLane="" arrivalPos="90.46" arrivalSpeed="29.68" duration="89.00" routeLength="1188.76" waitingTime="0.37" waitingCount="0" stopTime="0.00" timeLoss="24.33" rerouteNo="0" devices="tripinfo_39" vType="DEFAULT_VEHTYPE" speedFactor="1.18" vaporized=""/>
    <tripinfo id="40" depart="71.00" departLane="" departPos="0.00" departSpeed="22.05" departDelay="31.00" arrival="159.00" arrivalLane="" arrivalPos="90.46" arrivalSpeed="30.17" duration="88.00" routeLength="1188.76" waitingTime="0.37" waitingCount="0" stopTime="0.00" timeLoss="19.22" rerouteNo="0" devices="tripinfo_40" vType="DEFAULT_VEHTYPE" speedFactor="1.10" vaporized=""/>
    <tripinfo id="41" depart="73.00" departLane="" departPos="0.00" departSpeed="18.01" departDelay="32.00" arrival="164.00" arrivalLane="" arrivalPos="90.46" arrivalSpeed="27.02" duration="91.00" routeLength="1188.76" waitingTime="0.37" waitingCount="0" stopTime="0.00" timeLoss="6.71" rerouteNo="0" devices="tripinfo_41" vType="DEFAULT_VEHTYPE" speedFactor="0.90" vaporized=""/>
    <tripinfo id="42" depart="75.00" departLane="" departPos="0.00" departSpeed="19.35" departDelay="34.00" arrival="165.00" arrivalLane="" arrivalPos="90.46" arrivalSpeed="27.43" duration="90.00" routeLength="1188.76" waitingTime="0.37" waitingCount="0" stopTime="0.00" timeLoss="16.65" rerouteNo="0" devices="tripinfo_42" vType="DEFAULT_VEHTYPE" speedFactor="1.03" vaporized=""/>
    <tripinfo id="43" depart="77.00" departLane="" departPos="0.00" departSpeed="19.14" departDelay="35.00" arrival="167.00" arrivalLane="" arrivalPos="90.46" arrivalSpeed="27.85" duration="90.00" routeLength="1188.76" waitingTime="0.37" waitingCount="0" stopTime="0.00" timeLoss="10.42" rerouteNo="0" devices="tripinfo_43" vType="DEFAULT_VEHTYPE" speedFactor="0.96" vaporized=""/>
    <tripinfo id="44" depart="79.00" departLane="" departPos="0.00" departSpeed="20.67" departDelay="35.00" arrival="168.00" arrivalLane="" arrivalPos="90.46" arrivalSpeed="28.29" duration="89.00" routeLength="1188.76" waitingTime="0.37" waitingCount="0" stopTime="0.00" timeLoss="19.54" rerouteNo="0" devices="tripinfo_44" vType="DEFAULT_VEHTYPE" speedFactor="1.09" vaporized=""/>
    <tripinfo id="45" depart="81.00" departLane="" departPos="0.00" departSpeed="20.76" departDelay="37.00" arrival="170.00" arrivalLane="" arrivalPos="90.46" arrivalSpeed="28.74" duration="89.00" routeLength="1188.76" waitingTime="0.37" waitingCount="0" stopTime="0.00" timeLoss="15.32" rerouteNo="0" devices="tripinfo_45" vType="DEFAULT_VEHTYPE" speedFactor="1.04" vaporized=""/>
    <tripinfo id="46" depart="83.00" departLane="" departPos="0.00" departSpeed="20.87" departDelay="38.00" arrival="171.00" arrivalLane="" arrivalPos="90.46" arrivalSpeed="29.20" duration="88.00" routeLength="1188.76" waitingTime="0.37" waitingCount="0" stopTime="0.00" timeLoss="15.09" rerouteNo="0" devices="tripinfo_46" vType="DEFAULT_VEHTYPE" speedFactor="1.04" vaporized=""/>
    <tripinfo id="47" depart="85.00" departLane="" departPos="0.00" departSpeed="21.76" departDelay="37.00" arrival="172.00" arrivalLane="" arrivalPos="90.46" arrivalSpeed="29.68" duration="87.00" routeLength="1188.76" waitingTime="0.37" waitingCount="0" stopTime="0.00" timeLoss="17.43" rerouteNo="0" devices="tripinfo_47" vType="DEFAULT_VEHTYPE" speedFactor="1.09" vaporized=""/>
    <tripinfo id="48" depart="87.00" departLane="" departPos="0.00" departSpeed="19.95" departDelay="38.00" arrival="175.00" arrivalLane="" arrivalPos="90.46" arrivalSpeed="29.92" duration="88.00" routeLength="1188.76" waitingTime="0.37" waitingCount="0" stopTime="0.00" timeLoss="11.46" rerouteNo="0" devices="tripinfo_48" vType="DEFAULT_VEHTYPE" speedFactor="1.00" vaporized=""/>
    <tripinfo id="49" depart="88.00" departLane="" departPos="0.00" departSpeed="18.01" departDelay="38.00" arrival="179.00" arrivalLane="" arrivalPos="90.46" arrivalSpeed="27.01" duration="91.00" routeLength="1188.76" waitingTime="0.37" waitingCount="0" stopTime="0.00" timeLoss="6.74" rerouteNo="0" devices="tripinfo_49" vType="DEFAULT_VEHTYPE" speedFactor="0.90" vaporized=""/>
    <tripinfo id="50" depart="90.00" departLane="" departPos="0.00" departSpeed="17.54" departDelay="37.00" arrival="182.00" arrivalLane="" arrivalPos="90.46" arrivalSpeed="26.30" duration="92.00" routeLength="1188.76" waitingTime="0.37" waitingCount="0" stopTime="0.00" timeLoss="5.07" rerouteNo="0" devices="tripinfo_50" vType="DEFAULT_VEHTYPE" speedFactor="0.88" vaporized=""/>
    <tripinfo id="51" depart="92.00" departLane="" departPos="0.00" departSpeed="17.01" departDelay="38.00" arrival="184.00" arrivalLane="" arrivalPos="90.46" arrivalSpeed="25.51" duration="92.00" routeLength="1188.76" waitingTime="0.37" waitingCount="0" stopTime="0.00" timeLoss="3.11" rerouteNo="0" devices="tripinfo_51" vType="DEFAULT_VEHTYPE" speedFactor="0.85" vaporized=""/>
    <tripinfo id="52" depart="94.00" departLane="" departPos="0.00" departSpeed="17.10" departDelay="39.00" arrival="186.00" arrivalLane="" arrivalPos="90.46" arrivalSpeed="25.65" duration="92.00" routeLength="1188.76" waitingTime="0.37" waitingCount="0" stopTime="0.00" timeLoss="3.31" rerouteNo="0" devices="tripinfo_52" vType="DEFAULT_VEHTYPE" speedFactor="0.85" vaporized=""/>
    <tripinfo id="53" depart="96.00" departLane="" departPos="0.00" departSpeed="18.30" departDelay="41.00" arrival="188.00" arrivalLane="" arrivalPos="90.46" arrivalSpeed="26.02" duration="92.00" routeLength="1188.76" waitingTime="0.37" waitingCount="0" stopTime="0.00" timeLoss="26.42" rerouteNo="0" devices="tripinfo_53" vType="DEFAULT_VEHTYPE" speedFactor="1.17" vaporized=""/>
    <tripinfo id="54" depart="97.00" departLane="" departPos="0.00" departSpeed="17.07" departDelay="42.00" arrival="189.00" arrivalLane="" arrivalPos="90.46" arrivalSpeed="26.40" duration="92.00" routeLength="1188.76" waitingTime="0.37" waitingCount="0" stopTime="0.00" timeLoss="17.14" rerouteNo="0" devices="tripinfo_54" vType="DEFAULT_VEHTYPE" speedFactor="1.02" vaporized=""/>
    <tripinfo id="55" depart="99.00" departLane="" departPos="0.00" departSpeed="18.28" departDelay="43.00" arrival="190.00" arrivalLane="" arrivalPos="90.46" arrivalSpeed="26.79" duration="91.00" routeLength="1188.76" waitingTime="0.37" waitingCount="0" stopTime="0.00" timeLoss="21.87" rerouteNo="0" devices="tripinfo_55" vType="DEFAULT_VEHTYPE" speedFactor="1.10" vaporized=""/>
    <tripinfo id="56" depart="101.00" departLane="" departPos="0.00" departSpeed="19.66" departDelay="44.00" arrival="192.00" arrivalLane="" arrivalPos="90.46" arrivalSpeed="27.19" duration="91.00" routeLength="1188.76" waitingTime="0.37" waitingCount="0" stopTime="0.00" timeLoss="14.89" rerouteNo="0" devices="tripinfo_56" vType="DEFAULT_VEHTYPE" speedFactor="1.00" vaporized=""/>
    <tripinfo id="57" depart="103.00" departLane="" departPos="0.00" departSpeed="19.92" departDelay="45.00" arrival="193.00" arrivalLane="" arrivalPos="90.46" arrivalSpeed="27.60" duration="90.00" routeLength="1188.76" waitingTime="0.37" waitingCount="0" stopTime="0.00" timeLoss="13.72" rerouteNo="0" devices="tripinfo_57" vType="DEFAULT_VEHTYPE" speedFactor="1.00" vaporized=""/>
    <tripinfo id="58" depart="105.00" departLane="" departPos="0.00" departSpeed="17.98" departDelay="45.00" arrival="196.00" arrivalLane="" arrivalPos="90.46" arrivalSpeed="26.97" duration="91.00" routeLength="1188.76" waitingTime="0.37" waitingCount="0" stopTime="0.00" timeLoss="6.56" rerouteNo="0" devices="tripinfo_58" vType="DEFAULT_VEHTYPE" speedFactor="0.90" vaporized=""/>
    <tripinfo id="59" depart="107.00" departLane="" departPos="0.00" departSpeed="19.32" departDelay="47.00" arrival="197.00" arrivalLane="" arrivalPos="90.46" arrivalSpeed="27.38" duration="90.00" routeLength="1188.76" waitingTime="0.37" waitingCount="0" stopTime="0.00" timeLoss="23.86" rerouteNo="0" devices="tripinfo_59" vType="DEFAULT_VEHTYPE" speedFactor="1.14" vaporized=""/>
    <tripinfo id="60" depart="109.00" departLane="" departPos="0.00" departSpeed="20.47" departDelay="49.00" arrival="199.00" arrivalLane="" arrivalPos="90.46" arrivalSpeed="27.80" duration="90.00" routeLength="1188.76" waitingTime="0.37" waitingCount="0" stopTime="0.00" timeLoss="15.56" rerouteNo="0" devices="tripinfo_60" vType="DEFAULT_VEHTYPE" speedFactor="1.02" vaporized=""/>
    <tripinfo id="61" depart="111.00" departLane="" departPos="0.00" departSpeed="19.39" departDelay="49.00" arrival="200.00" arrivalLane="" arrivalPos="90.46" arrivalSpeed="28.23" duration="89.00" routeLength="1188.76" waitingTime="0.37" waitingCount="0" stopTime="0.00" timeLoss="10.82" rerouteNo="0" devices="tripinfo_61" vType="DEFAULT_VEHTYPE" speedFactor="0.97" vaporized=""/>
    <tripinfo id="62" depart="112.00" departLane="" departPos="0.00" departSpeed="18.02" departDelay="50.00" arrival="202.00" arrivalLane="" arrivalPos="90.46" arrivalSpeed="28.68" duration="90.00" routeLength="1188.76" waitingTime="0.37" waitingCount="0" stopTime="0.00" timeLoss="19.33" rerouteNo="0" devices="tripinfo_62" vType="DEFAULT_VEHTYPE" speedFactor="1.08" vaporized=""/>
    <tripinfo id="63" depart="114.00" departLane="" departPos="0.00" departSpeed="19.36" departDelay="51.00" arrival="203.00" arrivalLane="" arrivalPos="90.46" arrivalSpeed="29.14" duration="89.00" routeLength="1188.76" waitingTime="0.37" waitingCount="0" stopTime="0.00" timeLoss="21.01" rerouteNo="0" devices="tripinfo_63" vType="DEFAULT_VEHTYPE" speedFactor="1.12" vaporized=""/>
    <tripinfo id="64" depart="116.00" departLane="" departPos="0.00" departSpeed="20.32" departDelay="52.00" arrival="204.00" arrivalLane="" arrivalPos="90.46" arrivalSpeed="30.21" duration="88.00" routeLength="1188.76" waitingTime="0.37" waitingCount="0" stopTime="0.00" timeLoss="13.51" rerouteNo="0" devices="tripinfo_64" vType="DEFAULT_VEHTYPE" speedFactor="1.02" vaporized=""/>
    <tripinfo id="65" depart="118.00" departLane="" departPos="0.00" departSpeed="19.74" departDelay="54.00" arrival="207.00" arrivalLane="" arrivalPos="90.46" arrivalSpeed="29.61" duration="89.00" routeLength="1188.76" waitingTime="0.37" waitingCount="0" stopTime="0.00" timeLoss="11.88" rerouteNo="0" devices="tripinfo_65" vType="DEFAULT_VEHTYPE" speedFactor="0.99" vaporized=""/>
    <tripinfo id="66" depart="120.00" departLane="" departPos="0.00" departSpeed="18.75" departDelay="56.00" arrival="210.00" arrivalLane="" arrivalPos="90.46" arrivalSpeed="28.13" duration="90.00" routeLength="1188.76" waitingTime="0.37" waitingCount="0" stopTime="0.00" timeLoss="8.99" rerouteNo="0" devices="tripinfo_66" vType="DEFAULT_VEHTYPE" speedFactor="0.94" vaporized=""/>
    <tripinfo id="67" depart="122.00" departLane="" departPos="0.00" departSpeed="17.65" departDelay="57.00" arrival="213.00" arrivalLane="" arrivalPos="90.46" arrivalSpeed="26.47" duration="91.00" routeLength="1188.76" waitingTime="0.37" waitingCount="0" stopTime="0.00" timeLoss="5.40" rerouteNo="0" devices="tripinfo_67" vType="DEFAULT_VEHTYPE" speedFactor="0.88" vaporized=""/>
    <tripinfo id="68" depart="124.00" departLane="" departPos="0.00" departSpeed="18.14" departDelay="56.00" arrival="215.00" arrivalLane="" arrivalPos="90.46" arrivalSpeed="26.86" duration="91.00" routeLength="1188.76" waitingTime="0.37" waitingCount="0" stopTime="0.00" timeLoss="7.09" rerouteNo="0" devices="tripinfo_68" vType="DEFAULT_VEHTYPE" speedFactor="0.91" vaporized=""/>
    <tripinfo id="69" depart="126.00" departLane="" departPos="0.00" departSpeed="18.29" departDelay="56.00" arrival="216.00" arrivalLane="" arrivalPos="90.46" arrivalSpeed="27.44" duration="90.00" routeLength="1188.76" waitingTime="0.37" waitingCount="0" stopTime="0.00" timeLoss="7.23" rerouteNo="0" devices="tripinfo_69" vType="DEFAULT_VEHTYPE" speedFactor="0.91" vaporized=""/>
    <tripinfo id="70" depart="127.00" departLane="" departPos="0.00" departSpeed="17.07" departDelay="52.00" arrival="218.00" arrivalLane="" arrivalPos="90.46" arrivalSpeed="27.86" duration="91.00" routeLength="1188.76" waitingTime="0.37" waitingCount="0" stopTime="0.00" timeLoss="17.57" rerouteNo="0" devices="tripinfo_70" vType="DEFAULT_VEHTYPE" speedFactor="1.04" vaporized=""/>
    <tripinfo id="71" depart="129.00" departLane="" departPos="0.00" departSpeed="18.26" departDelay="54.00" arrival="219.00" arrivalLane="" arrivalPos="90.46" arrivalSpeed="28.30" duration="90.00" routeLength="1188.76" waitingTime="0.37" waitingCount="0" stopTime="0.00" timeLoss="15.68" rerouteNo="0" devices="tripinfo_71" vType="DEFAULT_VEHTYPE" speedFactor="1.02" vaporized=""/>
    <tripinfo id="72" depart="131.00" departLane="" departPos="0.00" departSpeed="19.65" departDelay="56.00" arrival="220.00" arrivalLane="" arrivalPos="90.46" arrivalSpeed="28.74" duration="89.00" routeLength="1188.76" waitingTime="0.37" waitingCount="0" stopTime="0.00" timeLoss="15.12" rerouteNo="0" devices="tripinfo_72" vType="DEFAULT_VEHTYPE" speedFactor="1.02" vaporized=""/>
    <tripinfo id="73" depart="133.00" departLane="" departPos="0.00" departSpeed="19.46" departDelay="57.00" arrival="222.00" arrivalLane="" arrivalPos="90.46" arrivalSpeed="29.19" duration="89.00" routeLength="1188.76" waitingTime="0.37" waitingCount="0" stopTime="0.00" timeLoss="11.16" rerouteNo="0" devices="tripinfo_73" vType="DEFAULT_VEHTYPE" speedFactor="0.97" vaporized=""/>
    <tripinfo id="74" depart="135.00" departLane="" departPos="0.00" departSpeed="18.80" departDelay="59.00" arrival="225.00" arrivalLane="" arrivalPos="90.46" arrivalSpeed="28.20" duration="90.00" routeLength="1188.76" waitingTime="0.37" waitingCount="0" stopTime="0.00" timeLoss="9.17" rerouteNo="0" devices="tripinfo_74" vType="DEFAULT_VEHTYPE" speedFactor="0.94" vaporized=""/>
    <tripinfo id="75" depart="137.00" departLane="" departPos="0.00" departSpeed="20.27" departDelay="60.00" arrival="226.00" arrivalLane="" arrivalPos="90.46" arrivalSpeed="28.65" duration="89.00" routeLength="1188.76" waitingTime="0.37" waitingCount="0" stopTime="0.00" timeLoss="17.35" rerouteNo="0" devices="tripinfo_75" vType="DEFAULT_VEHTYPE" speedFactor="1.06" vaporized=""/>