<?xml version="1.0" encoding="UTF-8"?>

<!-- generated on 2023-04-28 23:02:02 by Eclipse SUMO sumo Version 1.16.0
<configuration xmlns:xsi="http://www.w3.org/2001/XMLSchema-instance" xsi:noNamespaceSchemaLocation="http://sumo.dlr.de/xsd/sumoConfiguration.xsd">

    <input>
        <net-file value="C:\Users\Local_Man\Desktop\Stolen%20Music\school%20stuff%20for%20college\Semester%2015%20(UH%20Graduate%20School)\COSC%206364%20Nikolaos\SUMO_Project\COSC6364_Project\configurations\maps\Braess_Homebrew_fixed1.net.xml"/>
        <route-files value="./configurations/Rounds/Braess_Homebrew_fixed1.net.xml-test-2/Macroscopic_DUE/011/Trips_File_011.rou.xml"/>
    </input>

    <output>
        <summary-output value="./configurations/Rounds/Braess_Homebrew_fixed1.net.xml-test-2/Macroscopic_DUE/011/summary.xml"/>
        <tripinfo-output value="./configurations/Rounds/Braess_Homebrew_fixed1.net.xml-test-2/Macroscopic_DUE/011/trips.trips.xml"/>
        <statistic-output value="./configurations/Rounds/Braess_Homebrew_fixed1.net.xml-test-2/Macroscopic_DUE/011/stats_output.xml"/>
    </output>

    <time>
        <begin value="0"/>
    </time>

    <report>
        <log value="./configurations/Rounds/Braess_Homebrew_fixed1.net.xml-test-2/Macroscopic_DUE/011/log.sumo.log"/>
        <no-step-log value="true"/>
    </report>

    <gui_only>
        <quit-on-end value="true"/>
    </gui_only>

</configuration>
-->

<tripinfos xmlns:xsi="http://www.w3.org/2001/XMLSchema-instance" xsi:noNamespaceSchemaLocation="http://sumo.dlr.de/xsd/tripinfo_file.xsd">
    <tripinfo id="2" depart="3.00" departLane="E0_0" departPos="5.10" departSpeed="19.50" departDelay="0.00" arrival="97.00" arrivalLane="E3_0" arrivalPos="90.46" arrivalSpeed="28.43" duration="94.00" routeLength="1314.99" waitingTime="0.00" waitingCount="0" stopTime="0.00" timeLoss="9.79" rerouteNo="0" devices="tripinfo_2" vType="DEFAULT_VEHTYPE" speedFactor="0.98" vaporized=""/>
    <tripinfo id="4" depart="8.00" departLane="E0_0" departPos="5.10" departSpeed="24.01" departDelay="0.00" arrival="99.00" arrivalLane="E3_0" arrivalPos="90.46" arrivalSpeed="31.46" duration="91.00" routeLength="1314.99" waitingTime="0.00" waitingCount="0" stopTime="0.00" timeLoss="21.98" rerouteNo="0" devices="tripinfo_4" vType="DEFAULT_VEHTYPE" speedFactor="1.20" vaporized=""/>
    <tripinfo id="5" depart="9.00" departLane="E0_0" departPos="5.10" departSpeed="20.92" departDelay="0.00" arrival="100.00" arrivalLane="E3_0" arrivalPos="90.46" arrivalSpeed="31.20" duration="91.00" routeLength="1314.99" waitingTime="0.00" waitingCount="0" stopTime="0.00" timeLoss="12.18" rerouteNo="0" devices="tripinfo_5" vType="DEFAULT_VEHTYPE" speedFactor="1.05" vaporized=""/>
    <tripinfo id="7" depart="12.00" departLane="E0_0" departPos="5.10" departSpeed="18.76" departDelay="0.00" arrival="111.00" arrivalLane="E3_0" arrivalPos="90.46" arrivalSpeed="27.34" duration="99.00" routeLength="1314.99" waitingTime="0.00" waitingCount="0" stopTime="0.00" timeLoss="11.51" rerouteNo="0" devices="tripinfo_7" vType="DEFAULT_VEHTYPE" speedFactor="0.94" vaporized=""/>
    <tripinfo id="9" depart="15.00" departLane="E0_0" departPos="5.10" departSpeed="18.22" departDelay="0.00" arrival="113.00" arrivalLane="E3_0" arrivalPos="90.46" arrivalSpeed="31.07" duration="98.00" routeLength="1314.99" waitingTime="0.00" waitingCount="0" stopTime="0.00" timeLoss="21.95" rerouteNo="0" devices="tripinfo_9" vType="DEFAULT_VEHTYPE" speedFactor="1.09" vaporized=""/>
    <tripinfo id="10" depart="16.00" departLane="E0_0" departPos="5.10" departSpeed="15.13" departDelay="1.00" arrival="121.00" arrivalLane="E3_0" arrivalPos="90.46" arrivalSpeed="26.40" duration="105.00" routeLength="1314.99" waitingTime="0.00" waitingCount="0" stopTime="0.00" timeLoss="16.28" rerouteNo="0" devices="tripinfo_10" vType="DEFAULT_VEHTYPE" speedFactor="0.92" vaporized=""/>
    <tripinfo id="13" depart="21.00" departLane="E0_0" departPos="5.10" departSpeed="11.57" departDelay="1.00" arrival="127.00" arrivalLane="E3_0" arrivalPos="90.46" arrivalSpeed="27.60" duration="106.00" routeLength="1314.99" waitingTime="0.00" waitingCount="0" stopTime="0.00" timeLoss="16.81" rerouteNo="0" devices="tripinfo_13" vType="DEFAULT_VEHTYPE" speedFactor="0.93" vaporized=""/>
    <tripinfo id="15" depart="23.00" departLane="E0_0" departPos="5.10" departSpeed="3.50" departDelay="0.00" arrival="131.00" arrivalLane="E3_0" arrivalPos="90.46" arrivalSpeed="27.12" duration="108.00" routeLength="1314.99" waitingTime="0.00" waitingCount="0" stopTime="0.00" timeLoss="20.07" rerouteNo="0" devices="tripinfo_15" vType="DEFAULT_VEHTYPE" speedFactor="0.94" vaporized=""/>
    <tripinfo id="16" depart="25.00" departLane="E0_0" departPos="5.10" departSpeed="0.37" departDelay="2.00" arrival="133.00" arrivalLane="E3_0" arrivalPos="90.46" arrivalSpeed="31.52" duration="108.00" routeLength="1314.99" waitingTime="0.00" waitingCount="0" stopTime="0.00" timeLoss="31.21" rerouteNo="0" devices="tripinfo_16" vType="DEFAULT_VEHTYPE" speedFactor="1.08" vaporized=""/>
    <tripinfo id="17" depart="29.00" departLane="E0_0" departPos="5.10" departSpeed="4.58" departDelay="5.00" arrival="134.00" arrivalLane="E3_0" arrivalPos="90.46" arrivalSpeed="29.51" duration="105.00" routeLength="1314.99" waitingTime="0.00" waitingCount="0" stopTime="0.00" timeLoss="23.83" rerouteNo="0" devices="tripinfo_17" vType="DEFAULT_VEHTYPE" speedFactor="1.01" vaporized=""/>
    <tripinfo id="18" depart="31.00" departLane="E0_0" departPos="5.10" departSpeed="3.54" departDelay="7.00" arrival="135.00" arrivalLane="E3_0" arrivalPos="90.46" arrivalSpeed="30.76" duration="104.00" routeLength="1314.99" waitingTime="0.00" waitingCount="0" stopTime="0.00" timeLoss="24.48" rerouteNo="0" devices="tripinfo_18" vType="DEFAULT_VEHTYPE" speedFactor="1.03" vaporized=""/>
    <tripinfo id="19" depart="33.00" departLane="E0_0" departPos="5.10" departSpeed="2.31" departDelay="5.00" arrival="146.00" arrivalLane="E3_0" arrivalPos="90.46" arrivalSpeed="26.43" duration="113.00" routeLength="1314.99" waitingTime="0.00" waitingCount="0" stopTime="0.00" timeLoss="20.29" rerouteNo="0" devices="tripinfo_19" vType="DEFAULT_VEHTYPE" speedFactor="0.89" vaporized=""/>
    <tripinfo id="25" depart="48.00" departLane="E0_0" departPos="5.10" departSpeed="6.16" departDelay="15.00" arrival="147.00" arrivalLane="E3_0" arrivalPos="90.46" arrivalSpeed="27.62" duration="99.00" routeLength="1314.99" waitingTime="0.00" waitingCount="0" stopTime="0.00" timeLoss="27.55" rerouteNo="0" devices="tripinfo_25" vType="DEFAULT_VEHTYPE" speedFactor="1.15" vaporized=""/>
    <tripinfo id="26" depart="50.00" departLane="E0_0" departPos="5.10" departSpeed="5.92" departDelay="16.00" arrival="148.00" arrivalLane="E3_0" arrivalPos="90.46" arrivalSpeed="27.30" duration="98.00" routeLength="1314.99" waitingTime="0.00" waitingCount="0" stopTime="0.00" timeLoss="24.80" rerouteNo="0" devices="tripinfo_26" vType="DEFAULT_VEHTYPE" speedFactor="1.12" vaporized=""/>
    <tripinfo id="27" depart="52.00" departLane="E0_0" departPos="5.10" departSpeed="5.85" departDelay="17.00" arrival="153.00" arrivalLane="E3_0" arrivalPos="90.46" arrivalSpeed="29.17" duration="101.00" routeLength="1314.99" waitingTime="0.00" waitingCount="0" stopTime="0.00" timeLoss="18.74" rerouteNo="0" devices="tripinfo_27" vType="DEFAULT_VEHTYPE" speedFactor="0.99" vaporized=""/>
    <tripinfo id="29" depart="56.00" departLane="E0_0" departPos="5.10" departSpeed="7.62" departDelay="19.00" arrival="157.00" arrivalLane="E3_0" arrivalPos="90.46" arrivalSpeed="29.81" duration="101.00" routeLength="1314.99" waitingTime="0.00" waitingCount="0" stopTime="0.00" timeLoss="20.90" rerouteNo="0" devices="tripinfo_29" vType="DEFAULT_VEHTYPE" speedFactor="1.02" vaporized=""/>
    <tripinfo id="3" depart="4.00" departLane="E0_0" departPos="5.10" departSpeed="16.96" departDelay="1.00" arrival="167.00" arrivalLane="E3_0" arrivalPos="90.46" arrivalSpeed="24.96" duration="163.00" routeLength="1317.38" waitingTime="61.00" waitingCount="1" stopTime="0.00" timeLoss="83.71" rerouteNo="0" devices="tripinfo_3" vType="DEFAULT_VEHTYPE" speedFactor="1.08" vaporized=""/>
    <tripinfo id="30" depart="58.00" departLane="E0_0" departPos="5.10" departSpeed="7.90" departDelay="21.00" arrival="169.00" arrivalLane="E3_0" arrivalPos="90.46" arrivalSpeed="27.30" duration="111.00" routeLength="1314.99" waitingTime="0.00" waitingCount="0" stopTime="0.00" timeLoss="22.66" rerouteNo="0" devices="tripinfo_30" vType="DEFAULT_VEHTYPE" speedFactor="0.94" vaporized=""/>
    <tripinfo id="31" depart="59.00" departLane="E0_0" departPos="5.10" departSpeed="3.47" departDelay="22.00" arrival="170.00" arrivalLane="E3_0" arrivalPos="90.46" arrivalSpeed="28.75" duration="111.00" routeLength="1314.99" waitingTime="0.00" waitingCount="0" stopTime="0.00" timeLoss="36.30" rerouteNo="0" devices="tripinfo_31" vType="DEFAULT_VEHTYPE" speedFactor="1.10" vaporized=""/>
    <tripinfo id="32" depart="62.00" departLane="E0_0" departPos="5.10" departSpeed="2.76" departDelay="24.00" arrival="183.00" arrivalLane="E3_0" arrivalPos="90.46" arrivalSpeed="24.97" duration="121.00" routeLength="1314.99" waitingTime="0.00" waitingCount="0" stopTime="0.00" timeLoss="22.33" rerouteNo="0" devices="tripinfo_32" vType="DEFAULT_VEHTYPE" speedFactor="0.83" vaporized=""/>
    <tripinfo id="34" depart="67.00" departLane="E0_0" departPos="5.10" departSpeed="4.22" departDelay="29.00" arrival="184.00" arrivalLane="E3_0" arrivalPos="90.46" arrivalSpeed="26.76" duration="117.00" routeLength="1314.99" waitingTime="0.00" waitingCount="0" stopTime="0.00" timeLoss="39.82" rerouteNo="0" devices="tripinfo_34" vType="DEFAULT_VEHTYPE" speedFactor="1.07" vaporized=""/>
    <tripinfo id="6" depart="10.00" departLane="E0_0" departPos="5.10" departSpeed="18.18" departDelay="0.00" arrival="192.00" arrivalLane="E3_0" arrivalPos="90.46" arrivalSpeed="25.67" duration="182.00" routeLength="1317.38" waitingTime="77.00" waitingCount="2" stopTime="0.00" timeLoss="102.53" rerouteNo="0" devices="tripinfo_6" vType="DEFAULT_VEHTYPE" speedFactor="1.08" vaporized=""/>
    <tripinfo id="36" depart="72.00" departLane="E0_0" departPos="5.10" departSpeed="0.70" departDelay="32.00" arrival="199.00" arrivalLane="E3_0" arrivalPos="90.46" arrivalSpeed="22.14" duration="127.00" routeLength="1314.99" waitingTime="0.00" waitingCount="0" stopTime="0.00" timeLoss="20.25" rerouteNo="0" devices="tripinfo_36" vType="DEFAULT_VEHTYPE" speedFactor="0.77" vaporized=""/>
    <tripinfo id="38" depart="78.00" departLane="E0_0" departPos="5.10" departSpeed="6.17" departDelay="37.00" arrival="200.00" arrivalLane="E3_0" arrivalPos="90.46" arrivalSpeed="25.90" duration="122.00" routeLength="1314.99" waitingTime="0.00" waitingCount="0" stopTime="0.00" timeLoss="41.80" rerouteNo="0" devices="tripinfo_38" vType="DEFAULT_VEHTYPE" speedFactor="1.02" vaporized=""/>
    <tripinfo id="39" depart="80.00" departLane="E0_0" departPos="5.10" departSpeed="5.46" departDelay="35.00" arrival="202.00" arrivalLane="E3_0" arrivalPos="90.46" arrivalSpeed="25.13" duration="122.00" routeLength="1314.99" waitingTime="0.00" waitingCount="0" stopTime="0.00" timeLoss="27.99" rerouteNo="0" devices="tripinfo_39" vType="DEFAULT_VEHTYPE" speedFactor="0.88" vaporized=""/>
    <tripinfo id="40" depart="82.00" departLane="E0_0" departPos="5.10" departSpeed="5.77" departDelay="36.00" arrival="203.00" arrivalLane="E3_0" arrivalPos="90.46" arrivalSpeed="26.00" duration="121.00" routeLength="1314.99" waitingTime="0.00" waitingCount="0" stopTime="0.00" timeLoss="43.98" rerouteNo="0" devices="tripinfo_40" vType="DEFAULT_VEHTYPE" speedFactor="1.06" vaporized=""/>
    <tripinfo id="42" depart="86.00" departLane="E0_0" departPos="5.10" departSpeed="6.28" departDelay="40.00" arrival="205.00" arrivalLane="E3_0" arrivalPos="90.46" arrivalSpeed="29.29" duration="119.00" routeLength="1314.99" waitingTime="0.00" waitingCount="0" stopTime="0.00" timeLoss="40.13" rerouteNo="0" devices="tripinfo_42" vType="DEFAULT_VEHTYPE" speedFactor="1.05" vaporized=""/>
    <tripinfo id="43" depart="88.00" departLane="E0_0" departPos="5.10" departSpeed="5.97" departDelay="38.00" arrival="206.00" arrivalLane="E3_0" arrivalPos="90.46" arrivalSpeed="27.41" duration="118.00" routeLength="1314.99" waitingTime="0.00" waitingCount="0" stopTime="0.00" timeLoss="35.96" rerouteNo="0" devices="tripinfo_43" vType="DEFAULT_VEHTYPE" speedFactor="1.00" vaporized=""/>
    <tripinfo id="44" depart="90.00" departLane="E0_0" departPos="5.10" departSpeed="4.90" departDelay="39.00" arrival="208.00" arrivalLane="E3_0" arrivalPos="90.46" arrivalSpeed="30.31" duration="118.00" routeLength="1314.99" waitingTime="0.00" waitingCount="0" stopTime="0.00" timeLoss="42.44" rerouteNo="0" devices="tripinfo_44" vType="DEFAULT_VEHTYPE" speedFactor="1.10" vaporized=""/>
    <tripinfo id="45" depart="92.00" departLane="E0_0" departPos="5.10" departSpeed="0.05" departDelay="41.00" arrival="209.00" arrivalLane="E3_0" arrivalPos="90.46" arrivalSpeed="26.31" duration="117.00" routeLength="1314.99" waitingTime="1.00" waitingCount="1" stopTime="0.00" timeLoss="25.79" rerouteNo="0" devices="tripinfo_45" vType="DEFAULT_VEHTYPE" speedFactor="0.90" vaporized=""/>
    <tripinfo id="46" depart="96.00" departLane="E0_0" departPos="5.10" departSpeed="5.19" departDelay="44.00" arrival="210.00" arrivalLane="E3_0" arrivalPos="90.46" arrivalSpeed="28.62" duration="114.00" routeLength="1314.99" waitingTime="0.00" waitingCount="0" stopTime="0.00" timeLoss="29.12" rerouteNo="0" devices="tripinfo_46" vType="DEFAULT_VEHTYPE" speedFactor="0.96" vaporized=""/>
    <tripinfo id="50" depart="106.00" departLane="E0_0" departPos="5.10" departSpeed="1.11" departDelay="48.00" arrival="212.00" arrivalLane="E3_0" arrivalPos="90.46" arrivalSpeed="28.73" duration="106.00" routeLength="1314.99" waitingTime="0.00" waitingCount="0" stopTime="0.00" timeLoss="23.44" rerouteNo="0" devices="tripinfo_50" vType="DEFAULT_VEHTYPE" speedFactor="1.00" vaporized=""/>
    <tripinfo id="51" depart="109.00" departLane="E0_0" departPos="5.10" departSpeed="0.17" departDelay="51.00" arrival="213.00" arrivalLane="E3_0" arrivalPos="90.46" arrivalSpeed="28.70" duration="104.00" routeLength="1314.99" waitingTime="0.00" waitingCount="0" stopTime="0.00" timeLoss="20.73" rerouteNo="0" devices="tripinfo_51" vType="DEFAULT_VEHTYPE" speedFactor="0.99" vaporized=""/>
    <tripinfo id="8" depart="14.00" departLane="E0_0" departPos="5.10" departSpeed="20.00" departDelay="0.00" arrival="223.00" arrivalLane="E3_0" arrivalPos="90.46" arrivalSpeed="24.30" duration="209.00" routeLength="1317.38" waitingTime="95.00" waitingCount="3" stopTime="0.00" timeLoss="124.29" rerouteNo="0" devices="tripinfo_8" vType="DEFAULT_VEHTYPE" speedFactor="1.02" vaporized=""/>
    <tripinfo id="53" depart="115.00" departLane="E0_0" departPos="5.10" departSpeed="1.50" departDelay="56.00" arrival="225.00" arrivalLane="E3_0" arrivalPos="90.46" arrivalSpeed="26.58" duration="110.00" routeLength="1314.99" waitingTime="0.00" waitingCount="0" stopTime="0.00" timeLoss="18.89" rerouteNo="0" devices="tripinfo_53" vType="DEFAULT_VEHTYPE" speedFactor="0.91" vaporized=""/>
    <tripinfo id="54" depart="118.00" departLane="E0_0" departPos="5.10" departSpeed="3.25" departDelay="58.00" arrival="226.00" arrivalLane="E3_0" arrivalPos="90.46" arrivalSpeed="27.33" duration="108.00" routeLength="1314.99" waitingTime="0.00" waitingCount="0" stopTime="0.00" timeLoss="21.52" rerouteNo="0" devices="tripinfo_54" vType="DEFAULT_VEHTYPE" speedFactor="0.95" vaporized=""/>
    <tripinfo id="56" depart="123.00" departLane="E0_0" departPos="5.10" departSpeed="3.71" departDelay="63.00" arrival="230.00" arrivalLane="E3_0" arrivalPos="90.46" arrivalSpeed="26.81" duration="107.00" routeLength="1314.99" waitingTime="0.00" waitingCount="0" stopTime="0.00" timeLoss="17.97" rerouteNo="0" devices="tripinfo_56" vType="DEFAULT_VEHTYPE" speedFactor="0.93" vaporized=""/>
    <tripinfo id="62" depart="136.00" departLane="E0_0" departPos="5.10" departSpeed="6.01" departDelay="72.00" arrival="243.00" arrivalLane="E3_0" arrivalPos="90.46" arrivalSpeed="25.67" duration="107.00" routeLength="1314.99" waitingTime="0.00" waitingCount="0" stopTime="0.00" timeLoss="15.92" rerouteNo="0" devices="tripinfo_62" vType="DEFAULT_VEHTYPE" speedFactor="0.90" vaporized=""/>
    <tripinfo id="64" depart="140.00" departLane="E0_0" departPos="5.10" departSpeed="6.64" departDelay="75.00" arrival="245.00" arrivalLane="E3_0" arrivalPos="90.46" arrivalSpeed="30.29" duration="105.00" routeLength="1314.99" waitingTime="0.00" waitingCount="0" stopTime="0.00" timeLoss="28.86" rerouteNo="0" devices="tripinfo_64" vType="DEFAULT_VEHTYPE" speedFactor="1.08" vaporized=""/>
    <tripinfo id="65" depart="142.00" departLane="E0_0" departPos="5.10" departSpeed="6.78" departDelay="74.00" arrival="246.00" arrivalLane="E3_0" arrivalPos="90.46" arrivalSpeed="29.20" duration="104.00" routeLength="1314.99" waitingTime="0.00" waitingCount="0" stopTime="0.00" timeLoss="20.09" rerouteNo="0" devices="tripinfo_65" vType="DEFAULT_VEHTYPE" speedFactor="0.98" vaporized=""/>
    <tripinfo id="66" depart="144.00" departLane="E0_0" departPos="5.10" departSpeed="6.82" departDelay="71.00" arrival="248.00" arrivalLane="E3_0" arrivalPos="90.46" arrivalSpeed="29.02" duration="104.00" routeLength="1314.99" waitingTime="0.00" waitingCount="0" stopTime="0.00" timeLoss="20.17" rerouteNo="0" devices="tripinfo_66" vType="DEFAULT_VEHTYPE" speedFactor="0.98" vaporized=""/>
    <tripinfo id="68" depart="148.00" departLane="E0_0" departPos="5.10" departSpeed="2.45" departDelay="72.00" arrival="256.00" arrivalLane="E3_0" arrivalPos="90.46" arrivalSpeed="28.22" duration="108.00" routeLength="1314.99" waitingTime="0.00" waitingCount="0" stopTime="0.00" timeLoss="20.78" rerouteNo="0" devices="tripinfo_68" vType="DEFAULT_VEHTYPE" speedFactor="0.94" vaporized=""/>
    <tripinfo id="75" depart="163.00" departLane="E0_0" departPos="5.10" departSpeed="4.85" departDelay="75.00" arrival="260.00" arrivalLane="E3_0" arrivalPos="90.46" arrivalSpeed="32.05" duration="97.00" routeLength="1314.99" waitingTime="0.00" waitingCount="0" stopTime="0.00" timeLoss="21.89" rerouteNo="0" devices="tripinfo_75" vType="DEFAULT_VEHTYPE" speedFactor="1.10" vaporized=""/>
    <tripinfo id="76" depart="165.00" departLane="E0_0" departPos="5.10" departSpeed="4.39" departDelay="75.00" arrival="261.00" arrivalLane="E3_0" arrivalPos="90.46" arrivalSpeed="33.66" duration="96.00" routeLength="1314.99" waitingTime="0.00" waitingCount="0" stopTime="0.00" timeLoss="24.26" rerouteNo="0" devices="tripinfo_76" vType="DEFAULT_VEHTYPE" speedFactor="1.14" vaporized=""/>
    <tripinfo id="80" depart="175.00" departLane="E0_0" departPos="5.10" departSpeed="1.88" departDelay="80.00" arrival="271.00" arrivalLane="E3_0" arrivalPos="90.46" arrivalSpeed="32.11" duration="96.00" routeLength="1314.99" waitingTime="0.00" waitingCount="0" stopTime="0.00" timeLoss="19.07" rerouteNo="0" devices="tripinfo_80" vType="DEFAULT_VEHTYPE" speedFactor="1.08" vaporized=""/>
    <tripinfo id="83" depart="184.00" departLane="E0_0" departPos="5.10" departSpeed="3.94" departDelay="87.00" arrival="277.00" arrivalLane="E3_0" arrivalPos="90.46" arrivalSpeed="30.91" duration="93.00" routeLength="1314.99" waitingTime="0.00" waitingCount="0" stopTime="0.00" timeLoss="15.50" rerouteNo="0" devices="tripinfo_83" vType="DEFAULT_VEHTYPE" speedFactor="1.06" vaporized=""/>
    <tripinfo id="11" depart="17.00" departLane="E0_0" departPos="5.10" departSpeed="12.04" departDelay="0.00" arrival="287.00" arrivalLane="E3_0" arrivalPos="90.46" arrivalSpeed="24.68" duration="270.00" routeLength="1317.38" waitingTime="148.00" waitingCount="4" stopTime="0.00" timeLoss="193.35" rerouteNo="0" devices="tripinfo_11" vType="DEFAULT_VEHTYPE" speedFactor="1.12" vaporized=""/>
    <tripinfo id="86" depart="191.00" departLane="E0_0" departPos="5.10" departSpeed="1.06" departDelay="89.00" arrival="289.00" arrivalLane="E3_0" arrivalPos="90.46" arrivalSpeed="29.87" duration="98.00" routeLength="1314.99" waitingTime="0.00" waitingCount="0" stopTime="0.00" timeLoss="17.12" rerouteNo="0" devices="tripinfo_86" vType="DEFAULT_VEHTYPE" speedFactor="1.02" vaporized=""/>
    <tripinfo id="89" depart="199.00" departLane="E0_0" departPos="5.10" departSpeed="7.69" departDelay="94.00" arrival="290.00" arrivalLane="E3_0" arrivalPos="90.46" arrivalSpeed="29.15" duration="91.00" routeLength="1314.99" waitingTime="0.00" waitingCount="0" stopTime="0.00" timeLoss="21.24" rerouteNo="0" devices="tripinfo_89" vType="DEFAULT_VEHTYPE" speedFactor="1.18" vaporized=""/>
    <tripinfo id="92" depart="204.00" departLane="E0_0" departPos="5.10" departSpeed="1.97" departDelay="95.00" arrival="306.00" arrivalLane="E3_0" arrivalPos="90.46" arrivalSpeed="28.84" duration="102.00" routeLength="1314.99" waitingTime="0.00" waitingCount="0" stopTime="0.00" timeLoss="17.65" rerouteNo="0" devices="tripinfo_92" vType="DEFAULT_VEHTYPE" speedFactor="0.98" vaporized=""/>
    <tripinfo id="93" depart="207.00" departLane="E0_0" departPos="5.10" departSpeed="3.75" departDelay="93.00" arrival="311.00" arrivalLane="E3_0" arrivalPos="90.46" arrivalSpeed="27.46" duration="104.00" routeLength="1314.99" waitingTime="0.00" waitingCount="0" stopTime="0.00" timeLoss="17.20" rerouteNo="0" devices="tripinfo_93" vType="DEFAULT_VEHTYPE" speedFactor="0.94" vaporized=""/>
    <tripinfo id="94" depart="209.00" departLane="E0_0" departPos="5.10" departSpeed="3.32" departDelay="95.00" arrival="313.00" arrivalLane="E3_0" arrivalPos="90.46" arrivalSpeed="29.93" duration="104.00" routeLength="1314.99" waitingTime="0.00" waitingCount="0" stopTime="0.00" timeLoss="24.31" rerouteNo="0" devices="tripinfo_94" vType="DEFAULT_VEHTYPE" speedFactor="1.03" vaporized=""/>
    <tripinfo id="96" depart="214.00" departLane="E0_0" departPos="5.10" departSpeed="6.58" departDelay="97.00" arrival="324.00" arrivalLane="E3_0" arrivalPos="90.46" arrivalSpeed="25.81" duration="110.00" routeLength="1314.99" waitingTime="0.00" waitingCount="0" stopTime="0.00" timeLoss="17.35" rerouteNo="0" devices="tripinfo_96" vType="DEFAULT_VEHTYPE" speedFactor="0.89" vaporized=""/>
    <tripinfo id="100" depart="222.00" departLane="E0_0" departPos="5.10" departSpeed="8.54" departDelay="99.00" arrival="326.00" arrivalLane="E3_0" arrivalPos="90.46" arrivalSpeed="30.05" duration="104.00" routeLength="1314.99" waitingTime="0.00" waitingCount="0" stopTime="0.00" timeLoss="29.27" rerouteNo="0" devices="tripinfo_100" vType="DEFAULT_VEHTYPE" speedFactor="1.10" vaporized=""/>
    <tripinfo id="12" depart="20.00" departLane="E0_0" departPos="5.10" departSpeed="14.16" departDelay="0.00" arrival="335.00" arrivalLane="E3_0" arrivalPos="90.46" arrivalSpeed="26.21" duration="315.00" routeLength="1317.38" waitingTime="177.00" waitingCount="5" stopTime="0.00" timeLoss="219.34" rerouteNo="0" devices="tripinfo_12" vType="DEFAULT_VEHTYPE" speedFactor="0.90" vaporized=""/>
    <tripinfo id="102" depart="225.00" departLane="E0_0" departPos="5.10" departSpeed="1.01" departDelay="101.00" arrival="342.00" arrivalLane="E3_0" arrivalPos="90.46" arrivalSpeed="24.78" duration="117.00" routeLength="1314.99" waitingTime="0.00" waitingCount="0" stopTime="0.00" timeLoss="18.62" rerouteNo="0" devices="tripinfo_102" vType="DEFAULT_VEHTYPE" speedFactor="0.84" vaporized=""/>
    <tripinfo id="104" depart="231.00" departLane="E0_0" departPos="5.10" departSpeed="5.54" departDelay="104.00" arrival="343.00" arrivalLane="E3_0" arrivalPos="90.46" arrivalSpeed="26.36" duration="112.00" routeLength="1314.99" waitingTime="0.00" waitingCount="0" stopTime="0.00" timeLoss="32.98" rerouteNo="0" devices="tripinfo_104" vType="DEFAULT_VEHTYPE" speedFactor="1.04" vaporized=""/>
    <tripinfo id="106" depart="235.00" departLane="E0_0" departPos="5.10" departSpeed="4.58" departDelay="108.00" arrival="345.00" arrivalLane="E3_0" arrivalPos="90.46" arrivalSpeed="27.77" duration="110.00" routeLength="1314.99" waitingTime="0.00" waitingCount="0" stopTime="0.00" timeLoss="23.70" rerouteNo="0" devices="tripinfo_106" vType="DEFAULT_VEHTYPE" speedFactor="0.95" vaporized=""/>
    <tripinfo id="110" depart="244.00" departLane="E0_0" departPos="5.10" departSpeed="8.08" departDelay="105.00" arrival="346.00" arrivalLane="E3_0" arrivalPos="90.46" arrivalSpeed="27.68" duration="102.00" routeLength="1314.99" waitingTime="0.00" waitingCount="0" stopTime="0.00" timeLoss="20.92" rerouteNo="0" devices="tripinfo_110" vType="DEFAULT_VEHTYPE" speedFactor="1.01" vaporized=""/>
    <tripinfo id="111" depart="246.00" departLane="E0_0" departPos="5.10" departSpeed="8.70" departDelay="106.00" arrival="347.00" arrivalLane="E3_0" arrivalPos="90.46" arrivalSpeed="28.17" duration="101.00" routeLength="1314.99" waitingTime="0.00" waitingCount="0" stopTime="0.00" timeLoss="28.49" rerouteNo="0" devices="tripinfo_111" vType="DEFAULT_VEHTYPE" speedFactor="1.13" vaporized=""/>
    <tripinfo id="112" depart="247.00" departLane="E0_0" departPos="5.10" departSpeed="4.87" departDelay="106.00" arrival="349.00" arrivalLane="E3_0" arrivalPos="90.46" arrivalSpeed="29.65" duration="102.00" routeLength="1314.99" waitingTime="0.00" waitingCount="0" stopTime="0.00" timeLoss="33.94" rerouteNo="0" devices="tripinfo_112" vType="DEFAULT_VEHTYPE" speedFactor="1.21" vaporized=""/>
    <tripinfo id="14" depart="22.00" departLane="E0_0" departPos="5.10" departSpeed="8.35" departDelay="0.00" arrival="358.00" arrivalLane="E3_0" arrivalPos="90.46" arrivalSpeed="24.46" duration="336.00" routeLength="1317.38" waitingTime="191.00" waitingCount="6" stopTime="0.00" timeLoss="253.47" rerouteNo="0" devices="tripinfo_14" vType="DEFAULT_VEHTYPE" speedFactor="1.04" vaporized=""/>
    <tripinfo id="113" depart="249.00" departLane="E0_0" departPos="5.10" departSpeed="5.27" departDelay="108.00" arrival="363.00" arrivalLane="E3_0" arrivalPos="90.46" arrivalSpeed="25.63" duration="114.00" routeLength="1314.99" waitingTime="0.00" waitingCount="0" stopTime="0.00" timeLoss="21.59" rerouteNo="0" devices="tripinfo_113" vType="DEFAULT_VEHTYPE" speedFactor="0.89" vaporized=""/>
    <tripinfo id="114" depart="251.00" departLane="E0_0" departPos="5.10" departSpeed="1.37" departDelay="108.00" arrival="365.00" arrivalLane="E3_0" arrivalPos="90.46" arrivalSpeed="28.53" duration="114.00" routeLength="1314.99" waitingTime="0.00" waitingCount="0" stopTime="0.00" timeLoss="28.28" rerouteNo="0" devices="tripinfo_114" vType="DEFAULT_VEHTYPE" speedFactor="0.97" vaporized=""/>
    <tripinfo id="115" depart="254.00" departLane="E0_0" departPos="5.10" departSpeed="2.19" departDelay="110.00" arrival="366.00" arrivalLane="E3_0" arrivalPos="90.46" arrivalSpeed="27.55" duration="112.00" routeLength="1314.99" waitingTime="0.00" waitingCount="0" stopTime="0.00" timeLoss="32.87" rerouteNo="0" devices="tripinfo_115" vType="DEFAULT_VEHTYPE" speedFactor="1.04" vaporized=""/>
    <tripinfo id="120" depart="266.00" departLane="E0_0" departPos="5.10" departSpeed="0.36" departDelay="114.00" arrival="369.00" arrivalLane="E3_0" arrivalPos="90.46" arrivalSpeed="29.04" duration="103.00" routeLength="1314.99" waitingTime="0.00" waitingCount="0" stopTime="0.00" timeLoss="21.34" rerouteNo="0" devices="tripinfo_120" vType="DEFAULT_VEHTYPE" speedFactor="1.01" vaporized=""/>
    <tripinfo id="122" depart="272.00" departLane="E0_0" departPos="5.10" departSpeed="5.23" departDelay="119.00" arrival="373.00" arrivalLane="E3_0" arrivalPos="90.46" arrivalSpeed="29.01" duration="101.00" routeLength="1314.99" waitingTime="0.00" waitingCount="0" stopTime="0.00" timeLoss="18.52" rerouteNo="0" devices="tripinfo_122" vType="DEFAULT_VEHTYPE" speedFactor="1.00" vaporized=""/>
    <tripinfo id="20" depart="36.00" departLane="E0_0" departPos="5.10" departSpeed="3.08" departDelay="7.00" arrival="383.00" arrivalLane="E3_0" arrivalPos="90.46" arrivalSpeed="24.98" duration="347.00" routeLength="1317.38" waitingTime="198.00" waitingCount="7" stopTime="0.00" timeLoss="261.66" rerouteNo="0" devices="tripinfo_20" vType="DEFAULT_VEHTYPE" speedFactor="1.01" vaporized=""/>
    <tripinfo id="21" depart="39.00" departLane="E0_0" departPos="5.10" departSpeed="7.01" departDelay="8.00" arrival="384.00" arrivalLane="E3_0" arrivalPos="90.46" arrivalSpeed="24.07" duration="345.00" routeLength="1317.38" waitingTime="186.00" waitingCount="7" stopTime="0.00" timeLoss="246.94" rerouteNo="0" devices="tripinfo_21" vType="DEFAULT_VEHTYPE" speedFactor="0.87" vaporized=""/>
    <tripinfo id="22" depart="41.00" departLane="E0_0" departPos="5.10" departSpeed="8.26" departDelay="9.00" arrival="386.00" arrivalLane="E3_0" arrivalPos="90.46" arrivalSpeed="26.23" duration="345.00" routeLength="1317.38" waitingTime="180.00" waitingCount="7" stopTime="0.00" timeLoss="261.61" rerouteNo="0" devices="tripinfo_22" vType="DEFAULT_VEHTYPE" speedFactor="1.03" vaporized=""/>
    <tripinfo id="23" depart="42.00" departLane="E0_0" departPos="5.10" departSpeed="3.24" departDelay="10.00" arrival="388.00" arrivalLane="E3_0" arrivalPos="90.46" arrivalSpeed="27.39" duration="346.00" routeLength="1317.38" waitingTime="177.00" waitingCount="7" stopTime="0.00" timeLoss="269.91" rerouteNo="0" devices="tripinfo_23" vType="DEFAULT_VEHTYPE" speedFactor="1.13" vaporized=""/>
    <tripinfo id="24" depart="44.00" departLane="E0_0" departPos="5.10" departSpeed="0.86" departDelay="11.00" arrival="392.00" arrivalLane="E3_0" arrivalPos="90.46" arrivalSpeed="22.75" duration="348.00" routeLength="1317.38" waitingTime="172.00" waitingCount="7" stopTime="0.00" timeLoss="252.30" rerouteNo="0" devices="tripinfo_24" vType="DEFAULT_VEHTYPE" speedFactor="0.89" vaporized=""/>