<?xml version="1.0" encoding="UTF-8"?>

<!-- generated on 2023-04-29 23:49:53 by Eclipse SUMO sumo Version 1.16.0
<configuration xmlns:xsi="http://www.w3.org/2001/XMLSchema-instance" xsi:noNamespaceSchemaLocation="http://sumo.dlr.de/xsd/sumoConfiguration.xsd">

    <input>
        <net-file value="C:\Users\Local_Man\Desktop\Stolen%20Music\school%20stuff%20for%20college\Semester%2015%20(UH%20Graduate%20School)\COSC%206364%20Nikolaos\SUMO_Project\COSC6364_Project\configurations\maps\Braess_Homebrew_fixed1.net.xml"/>
        <route-files value="./configurations/Rounds/Braess_Homebrew_fixed1.net.xml-test-3/Macroscopic_DUE/002/Trips_File_002.rou.xml"/>
    </input>

    <output>
        <summary-output value="./configurations/Rounds/Braess_Homebrew_fixed1.net.xml-test-3/Macroscopic_DUE/002/summary.xml"/>
        <tripinfo-output value="./configurations/Rounds/Braess_Homebrew_fixed1.net.xml-test-3/Macroscopic_DUE/002/trips.trips.xml"/>
        <statistic-output value="./configurations/Rounds/Braess_Homebrew_fixed1.net.xml-test-3/Macroscopic_DUE/002/stats_output.xml"/>
    </output>

    <time>
        <begin value="0"/>
    </time>

    <report>
        <log value="./configurations/Rounds/Braess_Homebrew_fixed1.net.xml-test-3/Macroscopic_DUE/002/log.sumo.log"/>
        <no-step-log value="true"/>
    </report>

    <gui_only>
        <quit-on-end value="true"/>
    </gui_only>

</configuration>
-->

<tripinfos xmlns:xsi="http://www.w3.org/2001/XMLSchema-instance" xsi:noNamespaceSchemaLocation="http://sumo.dlr.de/xsd/tripinfo_file.xsd">
    <tripinfo id="2" depart="1.00" departLane="E0_0" departPos="5.10" departSpeed="19.50" departDelay="0.00" arrival="95.00" arrivalLane="E3_0" arrivalPos="90.46" arrivalSpeed="28.43" duration="94.00" routeLength="1314.99" waitingTime="0.00" waitingCount="0" stopTime="0.00" timeLoss="9.90" rerouteNo="0" devices="tripinfo_2" vType="DEFAULT_VEHTYPE" speedFactor="0.98" vaporized=""/>
    <tripinfo id="4" depart="3.00" departLane="E0_0" departPos="5.10" departSpeed="14.44" departDelay="1.00" arrival="97.00" arrivalLane="E3_0" arrivalPos="90.46" arrivalSpeed="31.51" duration="94.00" routeLength="1314.99" waitingTime="0.00" waitingCount="0" stopTime="0.00" timeLoss="25.07" rerouteNo="0" devices="tripinfo_4" vType="DEFAULT_VEHTYPE" speedFactor="1.20" vaporized=""/>
    <tripinfo id="5" depart="4.00" departLane="E0_0" departPos="5.10" departSpeed="10.75" departDelay="1.00" arrival="98.00" arrivalLane="E3_0" arrivalPos="90.46" arrivalSpeed="31.20" duration="94.00" routeLength="1314.99" waitingTime="0.00" waitingCount="0" stopTime="0.00" timeLoss="15.43" rerouteNo="0" devices="tripinfo_5" vType="DEFAULT_VEHTYPE" speedFactor="1.05" vaporized=""/>
    <tripinfo id="7" depart="6.00" departLane="E0_0" departPos="5.10" departSpeed="3.06" departDelay="1.00" arrival="112.00" arrivalLane="E3_0" arrivalPos="90.46" arrivalSpeed="27.00" duration="106.00" routeLength="1314.99" waitingTime="0.00" waitingCount="0" stopTime="0.00" timeLoss="17.89" rerouteNo="0" devices="tripinfo_7" vType="DEFAULT_VEHTYPE" speedFactor="0.94" vaporized=""/>
    <tripinfo id="9" depart="11.00" departLane="E0_0" departPos="5.10" departSpeed="5.15" departDelay="5.00" arrival="113.00" arrivalLane="E3_0" arrivalPos="90.46" arrivalSpeed="29.74" duration="102.00" routeLength="1314.99" waitingTime="0.00" waitingCount="0" stopTime="0.00" timeLoss="26.59" rerouteNo="0" devices="tripinfo_9" vType="DEFAULT_VEHTYPE" speedFactor="1.09" vaporized=""/>
    <tripinfo id="10" depart="13.00" departLane="E0_0" departPos="5.10" departSpeed="2.48" departDelay="7.00" arrival="121.00" arrivalLane="E3_0" arrivalPos="90.46" arrivalSpeed="26.75" duration="108.00" routeLength="1314.99" waitingTime="0.00" waitingCount="0" stopTime="0.00" timeLoss="18.82" rerouteNo="0" devices="tripinfo_10" vType="DEFAULT_VEHTYPE" speedFactor="0.92" vaporized=""/>
    <tripinfo id="13" depart="21.00" departLane="E0_0" departPos="5.10" departSpeed="7.42" departDelay="12.00" arrival="127.00" arrivalLane="E3_0" arrivalPos="90.46" arrivalSpeed="26.54" duration="106.00" routeLength="1314.99" waitingTime="0.00" waitingCount="0" stopTime="0.00" timeLoss="16.68" rerouteNo="0" devices="tripinfo_13" vType="DEFAULT_VEHTYPE" speedFactor="0.93" vaporized=""/>
    <tripinfo id="15" depart="25.00" departLane="E0_0" departPos="5.10" departSpeed="7.93" departDelay="13.00" arrival="132.00" arrivalLane="E3_0" arrivalPos="90.46" arrivalSpeed="28.01" duration="107.00" routeLength="1314.99" waitingTime="0.00" waitingCount="0" stopTime="0.00" timeLoss="19.06" rerouteNo="0" devices="tripinfo_15" vType="DEFAULT_VEHTYPE" speedFactor="0.94" vaporized=""/>
    <tripinfo id="16" depart="26.00" departLane="E0_0" departPos="5.10" departSpeed="3.59" departDelay="14.00" arrival="133.00" arrivalLane="E3_0" arrivalPos="90.46" arrivalSpeed="28.87" duration="107.00" routeLength="1314.99" waitingTime="0.00" waitingCount="0" stopTime="0.00" timeLoss="31.19" rerouteNo="0" devices="tripinfo_16" vType="DEFAULT_VEHTYPE" speedFactor="1.08" vaporized=""/>
    <tripinfo id="17" depart="28.00" departLane="E0_0" departPos="5.10" departSpeed="3.19" departDelay="14.00" arrival="134.00" arrivalLane="E3_0" arrivalPos="90.46" arrivalSpeed="29.51" duration="106.00" routeLength="1314.99" waitingTime="0.00" waitingCount="0" stopTime="0.00" timeLoss="25.05" rerouteNo="0" devices="tripinfo_17" vType="DEFAULT_VEHTYPE" speedFactor="1.01" vaporized=""/>
    <tripinfo id="18" depart="30.00" departLane="E0_0" departPos="5.10" departSpeed="1.05" departDelay="16.00" arrival="136.00" arrivalLane="E3_0" arrivalPos="90.46" arrivalSpeed="30.72" duration="106.00" routeLength="1314.99" waitingTime="0.00" waitingCount="0" stopTime="0.00" timeLoss="25.95" rerouteNo="0" devices="tripinfo_18" vType="DEFAULT_VEHTYPE" speedFactor="1.03" vaporized=""/>
    <tripinfo id="19" depart="34.00" departLane="E0_0" departPos="5.10" departSpeed="6.09" departDelay="20.00" arrival="144.00" arrivalLane="E3_0" arrivalPos="90.46" arrivalSpeed="26.43" duration="110.00" routeLength="1314.99" waitingTime="0.00" waitingCount="0" stopTime="0.00" timeLoss="17.98" rerouteNo="0" devices="tripinfo_19" vType="DEFAULT_VEHTYPE" speedFactor="0.89" vaporized=""/>
    <tripinfo id="25" depart="46.00" departLane="E0_0" departPos="5.10" departSpeed="6.21" departDelay="27.00" arrival="146.00" arrivalLane="E3_0" arrivalPos="90.46" arrivalSpeed="30.35" duration="100.00" routeLength="1314.99" waitingTime="0.00" waitingCount="0" stopTime="0.00" timeLoss="28.52" rerouteNo="0" devices="tripinfo_25" vType="DEFAULT_VEHTYPE" speedFactor="1.15" vaporized=""/>
    <tripinfo id="26" depart="48.00" departLane="E0_0" departPos="5.10" departSpeed="6.05" departDelay="29.00" arrival="147.00" arrivalLane="E3_0" arrivalPos="90.46" arrivalSpeed="29.63" duration="99.00" routeLength="1314.99" waitingTime="0.00" waitingCount="0" stopTime="0.00" timeLoss="25.59" rerouteNo="0" devices="tripinfo_26" vType="DEFAULT_VEHTYPE" speedFactor="1.12" vaporized=""/>
    <tripinfo id="27" depart="50.00" departLane="E0_0" departPos="5.10" departSpeed="6.90" departDelay="30.00" arrival="153.00" arrivalLane="E3_0" arrivalPos="90.46" arrivalSpeed="29.52" duration="103.00" routeLength="1314.99" waitingTime="0.00" waitingCount="0" stopTime="0.00" timeLoss="20.71" rerouteNo="0" devices="tripinfo_27" vType="DEFAULT_VEHTYPE" speedFactor="0.99" vaporized=""/>
    <tripinfo id="29" depart="54.00" departLane="E0_0" departPos="5.10" departSpeed="0.58" departDelay="31.00" arrival="156.00" arrivalLane="E3_0" arrivalPos="90.46" arrivalSpeed="30.05" duration="102.00" routeLength="1314.99" waitingTime="0.00" waitingCount="0" stopTime="0.00" timeLoss="21.44" rerouteNo="0" devices="tripinfo_29" vType="DEFAULT_VEHTYPE" speedFactor="1.02" vaporized=""/>
    <tripinfo id="30" depart="57.00" departLane="E0_0" departPos="5.10" departSpeed="1.03" departDelay="34.00" arrival="165.00" arrivalLane="E3_0" arrivalPos="90.46" arrivalSpeed="27.98" duration="108.00" routeLength="1314.99" waitingTime="0.00" waitingCount="0" stopTime="0.00" timeLoss="20.36" rerouteNo="0" devices="tripinfo_30" vType="DEFAULT_VEHTYPE" speedFactor="0.94" vaporized=""/>
    <tripinfo id="31" depart="60.00" departLane="E0_0" departPos="5.10" departSpeed="0.12" departDelay="31.00" arrival="166.00" arrivalLane="E3_0" arrivalPos="90.46" arrivalSpeed="29.31" duration="106.00" routeLength="1314.99" waitingTime="0.00" waitingCount="0" stopTime="0.00" timeLoss="31.34" rerouteNo="0" devices="tripinfo_31" vType="DEFAULT_VEHTYPE" speedFactor="1.10" vaporized=""/>
    <tripinfo id="3" depart="2.00" departLane="E0_0" departPos="5.10" departSpeed="16.96" departDelay="1.00" arrival="176.00" arrivalLane="E3_0" arrivalPos="90.46" arrivalSpeed="24.49" duration="174.00" routeLength="1317.38" waitingTime="71.00" waitingCount="1" stopTime="0.00" timeLoss="94.44" rerouteNo="0" devices="tripinfo_3" vType="DEFAULT_VEHTYPE" speedFactor="1.08" vaporized=""/>
    <tripinfo id="32" depart="64.00" departLane="E0_0" departPos="5.10" departSpeed="6.92" departDelay="35.00" arrival="181.00" arrivalLane="E3_0" arrivalPos="90.46" arrivalSpeed="24.61" duration="117.00" routeLength="1314.99" waitingTime="0.00" waitingCount="0" stopTime="0.00" timeLoss="17.96" rerouteNo="0" devices="tripinfo_32" vType="DEFAULT_VEHTYPE" speedFactor="0.83" vaporized=""/>
    <tripinfo id="33" depart="66.00" departLane="E0_0" departPos="5.10" departSpeed="7.34" departDelay="35.00" arrival="182.00" arrivalLane="E3_0" arrivalPos="90.46" arrivalSpeed="26.84" duration="116.00" routeLength="1314.99" waitingTime="0.00" waitingCount="0" stopTime="0.00" timeLoss="35.83" rerouteNo="0" devices="tripinfo_33" vType="DEFAULT_VEHTYPE" speedFactor="1.03" vaporized=""/>
    <tripinfo id="34" depart="68.00" departLane="E0_0" departPos="5.10" departSpeed="7.21" departDelay="35.00" arrival="183.00" arrivalLane="E3_0" arrivalPos="90.46" arrivalSpeed="27.26" duration="115.00" routeLength="1314.99" waitingTime="0.00" waitingCount="0" stopTime="0.00" timeLoss="37.93" rerouteNo="0" devices="tripinfo_34" vType="DEFAULT_VEHTYPE" speedFactor="1.07" vaporized=""/>
    <tripinfo id="6" depart="5.00" departLane="E0_0" departPos="5.10" departSpeed="7.88" departDelay="1.00" arrival="193.00" arrivalLane="E3_0" arrivalPos="90.46" arrivalSpeed="25.57" duration="188.00" routeLength="1317.38" waitingTime="77.00" waitingCount="2" stopTime="0.00" timeLoss="108.15" rerouteNo="0" devices="tripinfo_6" vType="DEFAULT_VEHTYPE" speedFactor="1.08" vaporized=""/>
    <tripinfo id="36" depart="72.00" departLane="E0_0" departPos="5.10" departSpeed="7.98" departDelay="35.00" arrival="199.00" arrivalLane="E3_0" arrivalPos="90.46" arrivalSpeed="22.42" duration="127.00" routeLength="1314.99" waitingTime="0.00" waitingCount="0" stopTime="0.00" timeLoss="20.68" rerouteNo="0" devices="tripinfo_36" vType="DEFAULT_VEHTYPE" speedFactor="0.77" vaporized=""/>
    <tripinfo id="38" depart="75.00" departLane="E0_0" departPos="5.10" departSpeed="0.86" departDelay="34.00" arrival="201.00" arrivalLane="E3_0" arrivalPos="90.46" arrivalSpeed="26.14" duration="126.00" routeLength="1314.99" waitingTime="0.00" waitingCount="0" stopTime="0.00" timeLoss="45.13" rerouteNo="0" devices="tripinfo_38" vType="DEFAULT_VEHTYPE" speedFactor="1.02" vaporized=""/>
    <tripinfo id="39" depart="79.00" departLane="E0_0" departPos="5.10" departSpeed="5.97" departDelay="38.00" arrival="202.00" arrivalLane="E3_0" arrivalPos="90.46" arrivalSpeed="25.14" duration="123.00" routeLength="1314.99" waitingTime="0.00" waitingCount="0" stopTime="0.00" timeLoss="29.79" rerouteNo="0" devices="tripinfo_39" vType="DEFAULT_VEHTYPE" speedFactor="0.88" vaporized=""/>
    <tripinfo id="40" depart="81.00" departLane="E0_0" departPos="5.10" departSpeed="6.97" departDelay="39.00" arrival="204.00" arrivalLane="E3_0" arrivalPos="90.46" arrivalSpeed="25.62" duration="123.00" routeLength="1314.99" waitingTime="0.00" waitingCount="0" stopTime="0.00" timeLoss="45.41" rerouteNo="0" devices="tripinfo_40" vType="DEFAULT_VEHTYPE" speedFactor="1.06" vaporized=""/>
    <tripinfo id="41" depart="83.00" departLane="E0_0" departPos="5.10" departSpeed="6.81" departDelay="38.00" arrival="205.00" arrivalLane="E3_0" arrivalPos="90.46" arrivalSpeed="27.05" duration="122.00" routeLength="1314.99" waitingTime="0.00" waitingCount="0" stopTime="0.00" timeLoss="51.62" rerouteNo="0" devices="tripinfo_41" vType="DEFAULT_VEHTYPE" speedFactor="1.17" vaporized=""/>
    <tripinfo id="42" depart="85.00" departLane="E0_0" departPos="5.10" departSpeed="8.00" departDelay="39.00" arrival="207.00" arrivalLane="E3_0" arrivalPos="90.46" arrivalSpeed="28.93" duration="122.00" routeLength="1314.99" waitingTime="0.00" waitingCount="0" stopTime="0.00" timeLoss="43.13" rerouteNo="0" devices="tripinfo_42" vType="DEFAULT_VEHTYPE" speedFactor="1.05" vaporized=""/>
    <tripinfo id="43" depart="86.00" departLane="E0_0" departPos="5.10" departSpeed="3.93" departDelay="40.00" arrival="208.00" arrivalLane="E3_0" arrivalPos="90.46" arrivalSpeed="27.94" duration="122.00" routeLength="1314.99" waitingTime="0.00" waitingCount="0" stopTime="0.00" timeLoss="40.09" rerouteNo="0" devices="tripinfo_43" vType="DEFAULT_VEHTYPE" speedFactor="1.00" vaporized=""/>
    <tripinfo id="44" depart="89.00" departLane="E0_0" departPos="5.10" departSpeed="0.57" departDelay="43.00" arrival="209.00" arrivalLane="E3_0" arrivalPos="90.46" arrivalSpeed="28.53" duration="120.00" routeLength="1314.99" waitingTime="0.00" waitingCount="0" stopTime="0.00" timeLoss="45.58" rerouteNo="0" devices="tripinfo_44" vType="DEFAULT_VEHTYPE" speedFactor="1.10" vaporized=""/>
    <tripinfo id="45" depart="92.00" departLane="E0_0" departPos="5.10" departSpeed="0.30" departDelay="45.00" arrival="211.00" arrivalLane="E3_0" arrivalPos="90.46" arrivalSpeed="25.76" duration="119.00" routeLength="1314.99" waitingTime="0.00" waitingCount="0" stopTime="0.00" timeLoss="27.54" rerouteNo="0" devices="tripinfo_45" vType="DEFAULT_VEHTYPE" speedFactor="0.90" vaporized=""/>
    <tripinfo id="46" depart="96.00" departLane="E0_0" departPos="5.10" departSpeed="5.96" departDelay="48.00" arrival="213.00" arrivalLane="E3_0" arrivalPos="90.46" arrivalSpeed="28.45" duration="117.00" routeLength="1314.99" waitingTime="0.00" waitingCount="0" stopTime="0.00" timeLoss="31.03" rerouteNo="0" devices="tripinfo_46" vType="DEFAULT_VEHTYPE" speedFactor="0.96" vaporized=""/>
    <tripinfo id="49" depart="102.00" departLane="E0_0" departPos="5.10" departSpeed="6.71" departDelay="50.00" arrival="214.00" arrivalLane="E3_0" arrivalPos="90.46" arrivalSpeed="29.17" duration="112.00" routeLength="1314.99" waitingTime="0.00" waitingCount="0" stopTime="0.00" timeLoss="38.61" rerouteNo="0" devices="tripinfo_49" vType="DEFAULT_VEHTYPE" speedFactor="1.12" vaporized=""/>
    <tripinfo id="50" depart="104.00" departLane="E0_0" departPos="5.10" departSpeed="4.98" departDelay="52.00" arrival="216.00" arrivalLane="E3_0" arrivalPos="90.46" arrivalSpeed="29.13" duration="112.00" routeLength="1314.99" waitingTime="0.00" waitingCount="0" stopTime="0.00" timeLoss="29.19" rerouteNo="0" devices="tripinfo_50" vType="DEFAULT_VEHTYPE" speedFactor="1.00" vaporized=""/>
    <tripinfo id="51" depart="106.00" departLane="E0_0" departPos="5.10" departSpeed="4.53" departDelay="52.00" arrival="217.00" arrivalLane="E3_0" arrivalPos="90.46" arrivalSpeed="29.58" duration="111.00" routeLength="1314.99" waitingTime="0.00" waitingCount="0" stopTime="0.00" timeLoss="27.74" rerouteNo="0" devices="tripinfo_51" vType="DEFAULT_VEHTYPE" speedFactor="0.99" vaporized=""/>
    <tripinfo id="53" depart="111.00" departLane="E0_0" departPos="5.10" departSpeed="1.92" departDelay="56.00" arrival="226.00" arrivalLane="E3_0" arrivalPos="90.46" arrivalSpeed="27.10" duration="115.00" routeLength="1314.99" waitingTime="0.00" waitingCount="0" stopTime="0.00" timeLoss="24.36" rerouteNo="0" devices="tripinfo_53" vType="DEFAULT_VEHTYPE" speedFactor="0.91" vaporized=""/>
    <tripinfo id="54" depart="114.00" departLane="E0_0" departPos="5.10" departSpeed="1.63" departDelay="58.00" arrival="228.00" arrivalLane="E3_0" arrivalPos="90.46" arrivalSpeed="28.06" duration="114.00" routeLength="1314.99" waitingTime="0.00" waitingCount="0" stopTime="0.00" timeLoss="26.75" rerouteNo="0" devices="tripinfo_54" vType="DEFAULT_VEHTYPE" speedFactor="0.95" vaporized=""/>
    <tripinfo id="56" depart="120.00" departLane="E0_0" departPos="5.10" departSpeed="5.92" departDelay="63.00" arrival="232.00" arrivalLane="E3_0" arrivalPos="90.46" arrivalSpeed="27.10" duration="112.00" routeLength="1314.99" waitingTime="0.00" waitingCount="0" stopTime="0.00" timeLoss="23.40" rerouteNo="0" devices="tripinfo_56" vType="DEFAULT_VEHTYPE" speedFactor="0.93" vaporized=""/>
    <tripinfo id="8" depart="9.00" departLane="E0_0" departPos="5.10" departSpeed="5.58" departDelay="4.00" arrival="240.00" arrivalLane="E3_0" arrivalPos="90.46" arrivalSpeed="25.54" duration="231.00" routeLength="1317.38" waitingTime="110.00" waitingCount="3" stopTime="0.00" timeLoss="146.51" rerouteNo="0" devices="tripinfo_8" vType="DEFAULT_VEHTYPE" speedFactor="1.02" vaporized=""/>
    <tripinfo id="60" depart="131.00" departLane="E0_0" departPos="5.10" departSpeed="5.69" departDelay="68.00" arrival="242.00" arrivalLane="E3_0" arrivalPos="90.46" arrivalSpeed="27.17" duration="111.00" routeLength="1314.99" waitingTime="0.00" waitingCount="0" stopTime="0.00" timeLoss="21.22" rerouteNo="0" devices="tripinfo_60" vType="DEFAULT_VEHTYPE" speedFactor="0.92" vaporized=""/>
    <tripinfo id="62" depart="136.00" departLane="E0_0" departPos="5.10" departSpeed="4.64" departDelay="72.00" arrival="247.00" arrivalLane="E3_0" arrivalPos="90.46" arrivalSpeed="26.80" duration="111.00" routeLength="1314.99" waitingTime="0.00" waitingCount="0" stopTime="0.00" timeLoss="19.06" rerouteNo="0" devices="tripinfo_62" vType="DEFAULT_VEHTYPE" speedFactor="0.90" vaporized=""/>
    <tripinfo id="64" depart="141.00" departLane="E0_0" departPos="5.10" departSpeed="4.83" departDelay="74.00" arrival="248.00" arrivalLane="E3_0" arrivalPos="90.46" arrivalSpeed="27.73" duration="107.00" routeLength="1314.99" waitingTime="0.00" waitingCount="0" stopTime="0.00" timeLoss="31.13" rerouteNo="0" devices="tripinfo_64" vType="DEFAULT_VEHTYPE" speedFactor="1.08" vaporized=""/>
    <tripinfo id="65" depart="143.00" departLane="E0_0" departPos="5.10" departSpeed="4.85" departDelay="75.00" arrival="249.00" arrivalLane="E3_0" arrivalPos="90.46" arrivalSpeed="28.21" duration="106.00" routeLength="1314.99" waitingTime="0.00" waitingCount="0" stopTime="0.00" timeLoss="22.39" rerouteNo="0" devices="tripinfo_65" vType="DEFAULT_VEHTYPE" speedFactor="0.98" vaporized=""/>
    <tripinfo id="66" depart="145.00" departLane="E0_0" departPos="5.10" departSpeed="0.30" departDelay="75.00" arrival="251.00" arrivalLane="E3_0" arrivalPos="90.46" arrivalSpeed="28.16" duration="106.00" routeLength="1314.99" waitingTime="0.00" waitingCount="0" stopTime="0.00" timeLoss="21.58" rerouteNo="0" devices="tripinfo_66" vType="DEFAULT_VEHTYPE" speedFactor="0.98" vaporized=""/>
    <tripinfo id="68" depart="151.00" departLane="E0_0" departPos="5.10" departSpeed="7.32" departDelay="77.00" arrival="258.00" arrivalLane="E3_0" arrivalPos="90.46" arrivalSpeed="27.88" duration="107.00" routeLength="1314.99" waitingTime="0.00" waitingCount="0" stopTime="0.00" timeLoss="19.71" rerouteNo="0" devices="tripinfo_68" vType="DEFAULT_VEHTYPE" speedFactor="0.94" vaporized=""/>
    <tripinfo id="11" depart="16.00" departLane="E0_0" departPos="5.10" departSpeed="2.65" departDelay="9.00" arrival="268.00" arrivalLane="E3_0" arrivalPos="90.46" arrivalSpeed="24.09" duration="252.00" routeLength="1317.38" waitingTime="130.00" waitingCount="4" stopTime="0.00" timeLoss="175.54" rerouteNo="0" devices="tripinfo_11" vType="DEFAULT_VEHTYPE" speedFactor="1.12" vaporized=""/>
    <tripinfo id="69" depart="153.00" departLane="E0_0" departPos="5.10" departSpeed="7.11" departDelay="77.00" arrival="270.00" arrivalLane="E3_0" arrivalPos="90.46" arrivalSpeed="23.87" duration="117.00" routeLength="1314.99" waitingTime="0.00" waitingCount="0" stopTime="0.00" timeLoss="18.66" rerouteNo="0" devices="tripinfo_69" vType="DEFAULT_VEHTYPE" speedFactor="0.83" vaporized=""/>
    <tripinfo id="75" depart="166.00" departLane="E0_0" departPos="5.10" departSpeed="1.98" departDelay="84.00" arrival="272.00" arrivalLane="E3_0" arrivalPos="90.46" arrivalSpeed="28.14" duration="106.00" routeLength="1314.99" waitingTime="0.00" waitingCount="0" stopTime="0.00" timeLoss="30.83" rerouteNo="0" devices="tripinfo_75" vType="DEFAULT_VEHTYPE" speedFactor="1.10" vaporized=""/>
    <tripinfo id="76" depart="169.00" departLane="E0_0" departPos="5.10" departSpeed="4.98" departDelay="87.00" arrival="273.00" arrivalLane="E3_0" arrivalPos="90.46" arrivalSpeed="28.32" duration="104.00" routeLength="1314.99" waitingTime="0.00" waitingCount="0" stopTime="0.00" timeLoss="31.90" rerouteNo="0" devices="tripinfo_76" vType="DEFAULT_VEHTYPE" speedFactor="1.14" vaporized=""/>
    <tripinfo id="77" depart="171.00" departLane="E0_0" departPos="5.10" departSpeed="3.50" departDelay="88.00" arrival="275.00" arrivalLane="E3_0" arrivalPos="90.46" arrivalSpeed="28.01" duration="104.00" routeLength="1314.99" waitingTime="0.00" waitingCount="0" stopTime="0.00" timeLoss="19.20" rerouteNo="0" devices="tripinfo_77" vType="DEFAULT_VEHTYPE" speedFactor="0.97" vaporized=""/>
    <tripinfo id="80" depart="178.00" departLane="E0_0" departPos="5.10" departSpeed="6.23" departDelay="90.00" arrival="277.00" arrivalLane="E3_0" arrivalPos="90.46" arrivalSpeed="31.50" duration="99.00" routeLength="1314.99" waitingTime="0.00" waitingCount="0" stopTime="0.00" timeLoss="21.85" rerouteNo="0" devices="tripinfo_80" vType="DEFAULT_VEHTYPE" speedFactor="1.08" vaporized=""/>
    <tripinfo id="83" depart="185.00" departLane="E0_0" departPos="5.10" departSpeed="5.26" departDelay="93.00" arrival="282.00" arrivalLane="E3_0" arrivalPos="90.46" arrivalSpeed="31.65" duration="97.00" routeLength="1314.99" waitingTime="0.00" waitingCount="0" stopTime="0.00" timeLoss="19.35" rerouteNo="0" devices="tripinfo_83" vType="DEFAULT_VEHTYPE" speedFactor="1.06" vaporized=""/>
    <tripinfo id="12" depart="19.00" departLane="E0_0" departPos="5.10" departSpeed="6.35" departDelay="11.00" arrival="291.00" arrivalLane="E3_0" arrivalPos="90.46" arrivalSpeed="25.18" duration="272.00" routeLength="1317.38" waitingTime="135.00" waitingCount="5" stopTime="0.00" timeLoss="176.64" rerouteNo="0" devices="tripinfo_12" vType="DEFAULT_VEHTYPE" speedFactor="0.90" vaporized=""/>
    <tripinfo id="14" depart="23.00" departLane="E0_0" departPos="5.10" departSpeed="7.47" departDelay="12.00" arrival="293.00" arrivalLane="E3_0" arrivalPos="90.46" arrivalSpeed="25.96" duration="270.00" routeLength="1317.38" waitingTime="130.00" waitingCount="5" stopTime="0.00" timeLoss="187.40" rerouteNo="0" devices="tripinfo_14" vType="DEFAULT_VEHTYPE" speedFactor="1.04" vaporized=""/>
    <tripinfo id="20" depart="36.00" departLane="E0_0" departPos="5.10" departSpeed="6.06" departDelay="21.00" arrival="295.00" arrivalLane="E3_0" arrivalPos="90.46" arrivalSpeed="25.36" duration="259.00" routeLength="1317.38" waitingTime="120.00" waitingCount="5" stopTime="0.00" timeLoss="174.40" rerouteNo="0" devices="tripinfo_20" vType="DEFAULT_VEHTYPE" speedFactor="1.01" vaporized=""/>
    <tripinfo id="21" depart="38.00" departLane="E0_0" departPos="5.10" departSpeed="6.91" departDelay="21.00" arrival="298.00" arrivalLane="E3_0" arrivalPos="90.46" arrivalSpeed="25.31" duration="260.00" routeLength="1317.38" waitingTime="109.00" waitingCount="5" stopTime="0.00" timeLoss="161.46" rerouteNo="0" devices="tripinfo_21" vType="DEFAULT_VEHTYPE" speedFactor="0.87" vaporized=""/>
    <tripinfo id="85" depart="189.00" departLane="E0_0" departPos="5.10" departSpeed="7.22" departDelay="94.00" arrival="303.00" arrivalLane="E3_0" arrivalPos="90.46" arrivalSpeed="25.57" duration="114.00" routeLength="1314.99" waitingTime="0.00" waitingCount="0" stopTime="0.00" timeLoss="19.49" rerouteNo="0" devices="tripinfo_85" vType="DEFAULT_VEHTYPE" speedFactor="0.87" vaporized=""/>
    <tripinfo id="86" depart="191.00" departLane="E0_0" departPos="5.10" departSpeed="6.78" departDelay="96.00" arrival="305.00" arrivalLane="E3_0" arrivalPos="90.46" arrivalSpeed="28.94" duration="114.00" routeLength="1314.99" waitingTime="0.00" waitingCount="0" stopTime="0.00" timeLoss="33.47" rerouteNo="0" devices="tripinfo_86" vType="DEFAULT_VEHTYPE" speedFactor="1.02" vaporized=""/>
    <tripinfo id="88" depart="195.00" departLane="E0_0" departPos="5.10" departSpeed="8.04" departDelay="96.00" arrival="306.00" arrivalLane="E3_0" arrivalPos="90.46" arrivalSpeed="27.88" duration="111.00" routeLength="1314.99" waitingTime="0.00" waitingCount="0" stopTime="0.00" timeLoss="26.68" rerouteNo="0" devices="tripinfo_88" vType="DEFAULT_VEHTYPE" speedFactor="0.97" vaporized=""/>
    <tripinfo id="89" depart="197.00" departLane="E0_0" departPos="5.10" departSpeed="3.96" departDelay="98.00" arrival="308.00" arrivalLane="E3_0" arrivalPos="90.46" arrivalSpeed="30.10" duration="111.00" routeLength="1314.99" waitingTime="0.00" waitingCount="0" stopTime="0.00" timeLoss="40.79" rerouteNo="0" devices="tripinfo_89" vType="DEFAULT_VEHTYPE" speedFactor="1.18" vaporized=""/>
    <tripinfo id="92" depart="205.00" departLane="E0_0" departPos="5.10" departSpeed="6.47" departDelay="104.00" arrival="310.00" arrivalLane="E3_0" arrivalPos="90.46" arrivalSpeed="28.33" duration="105.00" routeLength="1314.99" waitingTime="0.00" waitingCount="0" stopTime="0.00" timeLoss="21.07" rerouteNo="0" devices="tripinfo_92" vType="DEFAULT_VEHTYPE" speedFactor="0.98" vaporized=""/>
    <tripinfo id="93" depart="207.00" departLane="E0_0" departPos="5.10" departSpeed="6.56" departDelay="106.00" arrival="315.00" arrivalLane="E3_0" arrivalPos="90.46" arrivalSpeed="27.63" duration="108.00" routeLength="1314.99" waitingTime="0.00" waitingCount="0" stopTime="0.00" timeLoss="20.81" rerouteNo="0" devices="tripinfo_93" vType="DEFAULT_VEHTYPE" speedFactor="0.94" vaporized=""/>
    <tripinfo id="94" depart="209.00" departLane="E0_0" departPos="5.10" departSpeed="5.87" departDelay="108.00" arrival="317.00" arrivalLane="E3_0" arrivalPos="90.46" arrivalSpeed="29.72" duration="108.00" routeLength="1314.99" waitingTime="0.00" waitingCount="0" stopTime="0.00" timeLoss="27.85" rerouteNo="0" devices="tripinfo_94" vType="DEFAULT_VEHTYPE" speedFactor="1.03" vaporized=""/>
    <tripinfo id="22" depart="40.00" departLane="E0_0" departPos="5.10" departSpeed="7.45" departDelay="22.00" arrival="327.00" arrivalLane="E3_0" arrivalPos="90.46" arrivalSpeed="23.81" duration="287.00" routeLength="1317.38" waitingTime="126.00" waitingCount="7" stopTime="0.00" timeLoss="203.58" rerouteNo="0" devices="tripinfo_22" vType="DEFAULT_VEHTYPE" speedFactor="1.03" vaporized=""/>
    <tripinfo id="96" depart="213.00" departLane="E0_0" departPos="5.10" departSpeed="3.79" departDelay="103.00" arrival="329.00" arrivalLane="E3_0" arrivalPos="90.46" arrivalSpeed="26.21" duration="116.00" routeLength="1314.99" waitingTime="0.00" waitingCount="0" stopTime="0.00" timeLoss="22.63" rerouteNo="0" devices="tripinfo_96" vType="DEFAULT_VEHTYPE" speedFactor="0.89" vaporized=""/>
    <tripinfo id="97" depart="216.00" departLane="E0_0" departPos="5.10" departSpeed="2.74" departDelay="105.00" arrival="330.00" arrivalLane="E3_0" arrivalPos="90.46" arrivalSpeed="27.74" duration="114.00" routeLength="1314.99" waitingTime="0.00" waitingCount="0" stopTime="0.00" timeLoss="34.30" rerouteNo="0" devices="tripinfo_97" vType="DEFAULT_VEHTYPE" speedFactor="1.03" vaporized=""/>
    <tripinfo id="100" depart="223.00" departLane="E0_0" departPos="5.10" departSpeed="6.10" departDelay="105.00" arrival="331.00" arrivalLane="E3_0" arrivalPos="90.46" arrivalSpeed="26.50" duration="108.00" routeLength="1314.99" waitingTime="0.00" waitingCount="0" stopTime="0.00" timeLoss="33.74" rerouteNo="0" devices="tripinfo_100" vType="DEFAULT_VEHTYPE" speedFactor="1.10" vaporized=""/>
    <tripinfo id="102" depart="227.00" departLane="E0_0" departPos="5.10" departSpeed="4.42" departDelay="108.00" arrival="346.00" arrivalLane="E3_0" arrivalPos="90.46" arrivalSpeed="24.55" duration="119.00" routeLength="1314.99" waitingTime="0.00" waitingCount="0" stopTime="0.00" timeLoss="21.18" rerouteNo="0" devices="tripinfo_102" vType="DEFAULT_VEHTYPE" speedFactor="0.84" vaporized=""/>
    <tripinfo id="104" depart="233.00" departLane="E0_0" departPos="5.10" departSpeed="5.32" departDelay="112.00" arrival="348.00" arrivalLane="E3_0" arrivalPos="90.46" arrivalSpeed="28.92" duration="115.00" routeLength="1314.99" waitingTime="0.00" waitingCount="0" stopTime="0.00" timeLoss="35.43" rerouteNo="0" devices="tripinfo_104" vType="DEFAULT_VEHTYPE" speedFactor="1.04" vaporized=""/>
    <tripinfo id="106" depart="237.00" departLane="E0_0" departPos="5.10" departSpeed="5.01" departDelay="115.00" arrival="349.00" arrivalLane="E3_0" arrivalPos="90.46" arrivalSpeed="27.92" duration="112.00" routeLength="1314.99" waitingTime="0.00" waitingCount="0" stopTime="0.00" timeLoss="26.00" rerouteNo="0" devices="tripinfo_106" vType="DEFAULT_VEHTYPE" speedFactor="0.95" vaporized=""/>
    <tripinfo id="110" depart="247.00" departLane="E0_0" departPos="5.10" departSpeed="2.27" departDelay="123.00" arrival="351.00" arrivalLane="E3_0" arrivalPos="90.46" arrivalSpeed="29.37" duration="104.00" routeLength="1314.99" waitingTime="0.00" waitingCount="0" stopTime="0.00" timeLoss="22.56" rerouteNo="0" devices="tripinfo_110" vType="DEFAULT_VEHTYPE" speedFactor="1.01" vaporized=""/>