<?xml version="1.0" encoding="UTF-8"?>

<!-- generated on 2023-04-29 15:29:18 by Eclipse SUMO sumo Version 1.16.0
<configuration xmlns:xsi="http://www.w3.org/2001/XMLSchema-instance" xsi:noNamespaceSchemaLocation="http://sumo.dlr.de/xsd/sumoConfiguration.xsd">

    <input>
        <net-file value="C:\Users\Local_Man\Desktop\Stolen%20Music\school%20stuff%20for%20college\Semester%2015%20(UH%20Graduate%20School)\COSC%206364%20Nikolaos\SUMO_Project\COSC6364_Project\configurations\maps\4corners_neighborhoods.net.xml"/>
        <route-files value="./configurations/Rounds/4corners_neighborhoods.net.xml-test-1/Macroscopic_DUE/014/Trips_File_014.rou.xml"/>
    </input>

    <output>
        <summary-output value="./configurations/Rounds/4corners_neighborhoods.net.xml-test-1/Macroscopic_DUE/014/summary.xml"/>
        <tripinfo-output value="./configurations/Rounds/4corners_neighborhoods.net.xml-test-1/Macroscopic_DUE/014/trips.trips.xml"/>
        <statistic-output value="./configurations/Rounds/4corners_neighborhoods.net.xml-test-1/Macroscopic_DUE/014/stats_output.xml"/>
    </output>

    <time>
        <begin value="0"/>
    </time>

    <report>
        <log value="./configurations/Rounds/4corners_neighborhoods.net.xml-test-1/Macroscopic_DUE/014/log.sumo.log"/>
        <no-step-log value="true"/>
    </report>

    <gui_only>
        <quit-on-end value="true"/>
    </gui_only>

</configuration>
-->

<tripinfos xmlns:xsi="http://www.w3.org/2001/XMLSchema-instance" xsi:noNamespaceSchemaLocation="http://sumo.dlr.de/xsd/tripinfo_file.xsd">
    <tripinfo id="9" depart="9.00" departLane="318908683#0_0" departPos="5.10" departSpeed="15.15" departDelay="0.00" arrival="74.00" arrivalLane="422688976#1_1" arrivalPos="294.40" arrivalSpeed="29.62" duration="65.00" routeLength="940.85" waitingTime="21.00" waitingCount="1" stopTime="0.00" timeLoss="30.60" rerouteNo="0" devices="tripinfo_9" vType="DEFAULT_VEHTYPE" speedFactor="1.09" vaporized=""/>
    <tripinfo id="12" depart="14.00" departLane="318908683#0_0" departPos="5.10" departSpeed="12.51" departDelay="0.00" arrival="81.00" arrivalLane="422688976#1_1" arrivalPos="294.40" arrivalSpeed="24.40" duration="67.00" routeLength="940.85" waitingTime="16.00" waitingCount="1" stopTime="0.00" timeLoss="26.13" rerouteNo="0" devices="tripinfo_12" vType="DEFAULT_VEHTYPE" speedFactor="0.90" vaporized=""/>
    <tripinfo id="26" depart="28.00" departLane="318908683#0_0" departPos="5.10" departSpeed="9.16" departDelay="1.00" arrival="83.00" arrivalLane="918280984_0" arrivalPos="38.78" arrivalSpeed="15.36" duration="55.00" routeLength="693.58" waitingTime="7.00" waitingCount="2" stopTime="0.00" timeLoss="28.51" rerouteNo="0" devices="tripinfo_26" vType="DEFAULT_VEHTYPE" speedFactor="1.15" vaporized=""/>
    <tripinfo id="25" depart="27.00" departLane="318908683#0_0" departPos="5.10" departSpeed="12.42" departDelay="0.00" arrival="85.00" arrivalLane="260998164#0_0" arrivalPos="257.55" arrivalSpeed="24.02" duration="58.00" routeLength="939.98" waitingTime="5.00" waitingCount="1" stopTime="0.00" timeLoss="15.67" rerouteNo="0" devices="tripinfo_25" vType="DEFAULT_VEHTYPE" speedFactor="0.89" vaporized=""/>
    <tripinfo id="13" depart="17.00" departLane="-260998164#3_0" departPos="5.10" departSpeed="25.75" departDelay="0.00" arrival="89.00" arrivalLane="918280984_0" arrivalPos="38.78" arrivalSpeed="12.05" duration="72.00" routeLength="1455.19" waitingTime="0.00" waitingCount="0" stopTime="0.00" timeLoss="10.62" rerouteNo="0" devices="tripinfo_13" vType="DEFAULT_VEHTYPE" speedFactor="0.93" vaporized=""/>
    <tripinfo id="7" depart="7.00" departLane="597602753#0_0" departPos="5.10" departSpeed="20.84" departDelay="0.00" arrival="94.00" arrivalLane="-597602756#0_0" arrivalPos="325.99" arrivalSpeed="20.13" duration="87.00" routeLength="1646.04" waitingTime="0.00" waitingCount="0" stopTime="0.00" timeLoss="6.11" rerouteNo="0" devices="tripinfo_7" vType="DEFAULT_VEHTYPE" speedFactor="0.94" vaporized=""/>
    <tripinfo id="29" depart="30.00" departLane="-260998164#3_0" departPos="5.10" departSpeed="28.33" departDelay="0.00" arrival="96.00" arrivalLane="918280984_0" arrivalPos="38.78" arrivalSpeed="14.14" duration="66.00" routeLength="1455.19" waitingTime="0.00" waitingCount="0" stopTime="0.00" timeLoss="10.36" rerouteNo="0" devices="tripinfo_29" vType="DEFAULT_VEHTYPE" speedFactor="1.02" vaporized=""/>
    <tripinfo id="27" depart="29.00" departLane="597602753#0_0" departPos="5.10" departSpeed="21.52" departDelay="0.00" arrival="104.00" arrivalLane="-105681660#20_0" arrivalPos="806.12" arrivalSpeed="21.38" duration="75.00" routeLength="1387.70" waitingTime="0.00" waitingCount="0" stopTime="0.00" timeLoss="9.65" rerouteNo="0" devices="tripinfo_27" vType="DEFAULT_VEHTYPE" speedFactor="0.97" vaporized=""/>
    <tripinfo id="34" depart="33.00" departLane="-260998164#3_0" departPos="5.10" departSpeed="28.15" departDelay="0.00" arrival="104.00" arrivalLane="15374898#0-AddedOffRampEdge_1" arrivalPos="100.00" arrivalSpeed="29.05" duration="71.00" routeLength="1332.80" waitingTime="10.00" waitingCount="1" stopTime="0.00" timeLoss="25.10" rerouteNo="0" devices="tripinfo_34" vType="DEFAULT_VEHTYPE" speedFactor="1.07" vaporized=""/>
    <tripinfo id="38" depart="37.00" departLane="-260998164#3_0" departPos="5.10" departSpeed="28.36" departDelay="0.00" arrival="106.00" arrivalLane="15374898#0-AddedOffRampEdge_1" arrivalPos="100.00" arrivalSpeed="28.05" duration="69.00" routeLength="1332.80" waitingTime="8.00" waitingCount="1" stopTime="0.00" timeLoss="21.32" rerouteNo="0" devices="tripinfo_38" vType="DEFAULT_VEHTYPE" speedFactor="1.02" vaporized=""/>
    <tripinfo id="4" depart="4.00" departLane="597602756#0_0" departPos="5.10" departSpeed="23.24" departDelay="1.00" arrival="107.00" arrivalLane="15374898#0-AddedOffRampEdge_1" arrivalPos="100.00" arrivalSpeed="28.25" duration="103.00" routeLength="1760.61" waitingTime="1.00" waitingCount="1" stopTime="0.00" timeLoss="21.63" rerouteNo="0" devices="tripinfo_4" vType="DEFAULT_VEHTYPE" speedFactor="1.05" vaporized=""/>
    <tripinfo id="3" depart="3.00" departLane="597602756#0_0" departPos="5.10" departSpeed="26.67" departDelay="0.00" arrival="109.00" arrivalLane="-318908683#1_0" arrivalPos="71.22" arrivalSpeed="15.84" duration="106.00" routeLength="1382.88" waitingTime="24.00" waitingCount="1" stopTime="0.00" timeLoss="43.07" rerouteNo="0" devices="tripinfo_3" vType="DEFAULT_VEHTYPE" speedFactor="1.20" vaporized=""/>
    <tripinfo id="11" depart="13.00" departLane="918280985_0" departPos="5.10" departSpeed="13.00" departDelay="0.00" arrival="110.00" arrivalLane="260998164#0_0" arrivalPos="257.55" arrivalSpeed="30.65" duration="97.00" routeLength="1460.33" waitingTime="21.00" waitingCount="1" stopTime="0.00" timeLoss="46.61" rerouteNo="0" devices="tripinfo_11" vType="DEFAULT_VEHTYPE" speedFactor="1.12" vaporized=""/>
    <tripinfo id="28" depart="29.00" departLane="105681660#12_0" departPos="5.10" departSpeed="22.10" departDelay="0.00" arrival="111.00" arrivalLane="-597602753#1_0" arrivalPos="143.59" arrivalSpeed="21.59" duration="82.00" routeLength="1380.56" waitingTime="6.00" waitingCount="1" stopTime="0.00" timeLoss="18.30" rerouteNo="0" devices="tripinfo_28" vType="DEFAULT_VEHTYPE" speedFactor="0.99" vaporized=""/>
    <tripinfo id="10" depart="10.00" departLane="597602756#0_0" departPos="5.10" departSpeed="20.50" departDelay="0.00" arrival="112.00" arrivalLane="15374898#0-AddedOffRampEdge_1" arrivalPos="100.00" arrivalSpeed="25.14" duration="102.00" routeLength="1760.61" waitingTime="0.00" waitingCount="0" stopTime="0.00" timeLoss="10.04" rerouteNo="0" devices="tripinfo_10" vType="DEFAULT_VEHTYPE" speedFactor="0.92" vaporized=""/>
    <tripinfo id="35" depart="34.00" departLane="918280985_0" departPos="5.10" departSpeed="7.00" departDelay="0.00" arrival="112.00" arrivalLane="260998164#0_0" arrivalPos="257.55" arrivalSpeed="28.63" duration="78.00" routeLength="1460.33" waitingTime="4.00" waitingCount="1" stopTime="0.00" timeLoss="23.66" rerouteNo="0" devices="tripinfo_35" vType="DEFAULT_VEHTYPE" speedFactor="1.04" vaporized=""/>
    <tripinfo id="23" depart="27.00" departLane="422688973_2" departPos="5.10" departSpeed="0.24" departDelay="0.00" arrival="117.00" arrivalLane="15374898#0-AddedOffRampEdge_1" arrivalPos="100.00" arrivalSpeed="31.08" duration="90.00" routeLength="1006.54" waitingTime="28.00" waitingCount="2" stopTime="0.00" timeLoss="57.09" rerouteNo="0" devices="tripinfo_23" vType="DEFAULT_VEHTYPE" speedFactor="1.12" vaporized=""/>
    <tripinfo id="48" depart="48.00" departLane="105681660#12_0" departPos="5.10" departSpeed="22.15" departDelay="0.00" arrival="117.00" arrivalLane="-597602753#1_0" arrivalPos="143.59" arrivalSpeed="21.89" duration="69.00" routeLength="1380.56" waitingTime="0.00" waitingCount="0" stopTime="0.00" timeLoss="5.91" rerouteNo="0" devices="tripinfo_48" vType="DEFAULT_VEHTYPE" speedFactor="1.00" vaporized=""/>
    <tripinfo id="49" depart="49.00" departLane="105681660#12_0" departPos="5.10" departSpeed="20.04" departDelay="1.00" arrival="119.00" arrivalLane="-597602753#1_0" arrivalPos="143.59" arrivalSpeed="24.07" duration="70.00" routeLength="1380.56" waitingTime="0.00" waitingCount="0" stopTime="0.00" timeLoss="13.27" rerouteNo="0" devices="tripinfo_49" vType="DEFAULT_VEHTYPE" speedFactor="1.12" vaporized=""/>
    <tripinfo id="43" depart="44.00" departLane="422685671#2_0" departPos="5.10" departSpeed="27.87" departDelay="0.00" arrival="120.00" arrivalLane="260998164#0_0" arrivalPos="257.55" arrivalSpeed="27.21" duration="76.00" routeLength="1329.43" waitingTime="15.00" waitingCount="1" stopTime="0.00" timeLoss="27.62" rerouteNo="0" devices="tripinfo_43" vType="DEFAULT_VEHTYPE" speedFactor="1.00" vaporized=""/>
    <tripinfo id="2" depart="1.00" departLane="918280985_0" departPos="5.10" departSpeed="13.55" departDelay="0.00" arrival="121.00" arrivalLane="-105681660#20_0" arrivalPos="806.12" arrivalSpeed="20.60" duration="120.00" routeLength="1360.98" waitingTime="31.00" waitingCount="1" stopTime="0.00" timeLoss="41.79" rerouteNo="0" devices="tripinfo_2" vType="DEFAULT_VEHTYPE" speedFactor="0.98" vaporized=""/>
    <tripinfo id="41" depart="43.00" departLane="318908683#0_0" departPos="5.10" departSpeed="14.05" departDelay="0.00" arrival="128.00" arrivalLane="-597602756#0_0" arrivalPos="325.99" arrivalSpeed="24.72" duration="85.00" routeLength="1371.20" waitingTime="1.00" waitingCount="1" stopTime="0.00" timeLoss="20.90" rerouteNo="0" devices="tripinfo_41" vType="DEFAULT_VEHTYPE" speedFactor="1.17" vaporized=""/>
    <tripinfo id="24" depart="27.00" departLane="105681660#12_0" departPos="5.10" departSpeed="25.14" departDelay="0.00" arrival="129.00" arrivalLane="918280984_0" arrivalPos="38.78" arrivalSpeed="15.12" duration="102.00" routeLength="1405.13" waitingTime="9.00" waitingCount="1" stopTime="0.00" timeLoss="30.05" rerouteNo="0" devices="tripinfo_24" vType="DEFAULT_VEHTYPE" speedFactor="1.13" vaporized=""/>
    <tripinfo id="19" depart="25.00" departLane="105681660#12_0" departPos="5.10" departSpeed="22.86" departDelay="0.00" arrival="137.00" arrivalLane="422688976#1_0" arrivalPos="294.40" arrivalSpeed="28.57" duration="112.00" routeLength="1630.66" waitingTime="11.00" waitingCount="1" stopTime="0.00" timeLoss="27.58" rerouteNo="0" devices="tripinfo_19" vType="DEFAULT_VEHTYPE" speedFactor="1.03" vaporized=""/>
    <tripinfo id="55" depart="58.00" departLane="597602756#0_0" departPos="5.10" departSpeed="23.46" departDelay="0.00" arrival="141.00" arrivalLane="-597602753#1_0" arrivalPos="143.59" arrivalSpeed="22.68" duration="83.00" routeLength="1638.96" waitingTime="0.00" waitingCount="0" stopTime="0.00" timeLoss="12.16" rerouteNo="0" devices="tripinfo_55" vType="DEFAULT_VEHTYPE" speedFactor="1.06" vaporized=""/>
    <tripinfo id="32" depart="31.00" departLane="318908683#0_0" departPos="5.10" departSpeed="11.60" departDelay="0.00" arrival="143.00" arrivalLane="-105681660#20_0" arrivalPos="806.12" arrivalSpeed="17.37" duration="112.00" routeLength="1436.85" waitingTime="6.00" waitingCount="2" stopTime="0.00" timeLoss="31.15" rerouteNo="0" devices="tripinfo_32" vType="DEFAULT_VEHTYPE" speedFactor="0.83" vaporized=""/>
    <tripinfo id="33" depart="31.00" departLane="918280985_0" departPos="5.10" departSpeed="10.50" departDelay="0.00" arrival="146.00" arrivalLane="-318908683#1_0" arrivalPos="71.22" arrivalSpeed="13.30" duration="115.00" routeLength="674.50" waitingTime="64.00" waitingCount="2" stopTime="0.00" timeLoss="85.48" rerouteNo="0" devices="tripinfo_33" vType="DEFAULT_VEHTYPE" speedFactor="1.03" vaporized=""/>
    <tripinfo id="16" depart="21.00" departLane="422688973_0" departPos="5.10" departSpeed="15.75" departDelay="0.00" arrival="147.00" arrivalLane="-318908683#1_0" arrivalPos="71.22" arrivalSpeed="14.23" duration="126.00" routeLength="684.23" waitingTime="79.00" waitingCount="2" stopTime="0.00" timeLoss="100.17" rerouteNo="0" devices="tripinfo_16" vType="DEFAULT_VEHTYPE" speedFactor="1.08" vaporized=""/>
    <tripinfo id="8" depart="7.00" departLane="918280985_0" departPos="5.10" departSpeed="14.13" departDelay="0.00" arrival="148.00" arrivalLane="-597602756#0_0" arrivalPos="325.99" arrivalSpeed="21.60" duration="141.00" routeLength="1891.55" waitingTime="25.00" waitingCount="1" stopTime="0.00" timeLoss="48.58" rerouteNo="0" devices="tripinfo_8" vType="DEFAULT_VEHTYPE" speedFactor="1.02" vaporized=""/>
    <tripinfo id="51" depart="49.00" departLane="422688973_1" departPos="5.10" departSpeed="13.62" departDelay="0.00" arrival="149.00" arrivalLane="-318908683#1_0" arrivalPos="71.22" arrivalSpeed="13.16" duration="100.00" routeLength="684.23" waitingTime="51.00" waitingCount="2" stopTime="0.00" timeLoss="71.99" rerouteNo="0" devices="tripinfo_51" vType="DEFAULT_VEHTYPE" speedFactor="1.00" vaporized=""/>
    <tripinfo id="58" depart="59.00" departLane="597602753#0_0" departPos="5.10" departSpeed="24.84" departDelay="0.00" arrival="150.00" arrivalLane="-597602756#0_0" arrivalPos="325.99" arrivalSpeed="24.50" duration="91.00" routeLength="1646.04" waitingTime="6.00" waitingCount="1" stopTime="0.00" timeLoss="23.20" rerouteNo="0" devices="tripinfo_58" vType="DEFAULT_VEHTYPE" speedFactor="1.12" vaporized=""/>
    <tripinfo id="6" depart="6.00" departLane="105681660#12_0" departPos="5.10" departSpeed="23.95" departDelay="0.00" arrival="151.00" arrivalLane="-318908683#1_0" arrivalPos="71.22" arrivalSpeed="14.00" duration="145.00" routeLength="1986.24" waitingTime="11.00" waitingCount="4" stopTime="0.00" timeLoss="48.56" rerouteNo="0" devices="tripinfo_6" vType="DEFAULT_VEHTYPE" speedFactor="1.08" vaporized=""/>
    <tripinfo id="45" depart="45.00" departLane="597602756#0_0" departPos="5.10" departSpeed="19.97" departDelay="0.00" arrival="153.00" arrivalLane="-105681660#20_0" arrivalPos="806.12" arrivalSpeed="18.78" duration="108.00" routeLength="1867.67" waitingTime="0.00" waitingCount="0" stopTime="0.00" timeLoss="12.57" rerouteNo="0" devices="tripinfo_45" vType="DEFAULT_VEHTYPE" speedFactor="0.90" vaporized=""/>
    <tripinfo id="79" depart="81.00" departLane="918280985_0" departPos="5.10" departSpeed="0.48" departDelay="0.00" arrival="153.00" arrivalLane="-318908683#1_0" arrivalPos="71.22" arrivalSpeed="13.89" duration="72.00" routeLength="674.50" waitingTime="18.00" waitingCount="2" stopTime="0.00" timeLoss="43.44" rerouteNo="0" devices="tripinfo_79" vType="DEFAULT_VEHTYPE" speedFactor="1.07" vaporized=""/>
    <tripinfo id="50" depart="49.00" departLane="597602756#0_0" departPos="5.10" departSpeed="21.93" departDelay="0.00" arrival="155.00" arrivalLane="-105681660#20_0" arrivalPos="806.12" arrivalSpeed="20.63" duration="106.00" routeLength="1867.67" waitingTime="0.00" waitingCount="0" stopTime="0.00" timeLoss="18.48" rerouteNo="0" devices="tripinfo_50" vType="DEFAULT_VEHTYPE" speedFactor="0.99" vaporized=""/>
    <tripinfo id="70" depart="72.00" departLane="597602753#0_0" departPos="5.10" departSpeed="23.38" departDelay="0.00" arrival="155.00" arrivalLane="-597602756#0_0" arrivalPos="325.99" arrivalSpeed="22.26" duration="83.00" routeLength="1646.04" waitingTime="0.00" waitingCount="0" stopTime="0.00" timeLoss="10.60" rerouteNo="0" devices="tripinfo_70" vType="DEFAULT_VEHTYPE" speedFactor="1.05" vaporized=""/>
    <tripinfo id="80" depart="102.00" departLane="918280985_0" departPos="5.10" departSpeed="0.52" departDelay="21.00" arrival="157.00" arrivalLane="15374898#0-AddedOffRampEdge_0" arrivalPos="100.00" arrivalSpeed="29.42" duration="55.00" routeLength="996.81" waitingTime="0.00" waitingCount="0" stopTime="0.00" timeLoss="17.82" rerouteNo="0" devices="tripinfo_80" vType="DEFAULT_VEHTYPE" speedFactor="1.08" vaporized=""/>
    <tripinfo id="81" depart="106.00" departLane="918280985_0" departPos="5.10" departSpeed="6.04" departDelay="24.00" arrival="159.00" arrivalLane="15374898#0-AddedOffRampEdge_0" arrivalPos="100.00" arrivalSpeed="29.03" duration="53.00" routeLength="996.81" waitingTime="0.00" waitingCount="0" stopTime="0.00" timeLoss="15.46" rerouteNo="0" devices="tripinfo_81" vType="DEFAULT_VEHTYPE" speedFactor="1.06" vaporized=""/>
    <tripinfo id="44" depart="45.00" departLane="-260998164#3_0" departPos="5.10" departSpeed="30.58" departDelay="0.00" arrival="161.00" arrivalLane="422688976#1_1" arrivalPos="294.40" arrivalSpeed="30.54" duration="116.00" routeLength="1702.46" waitingTime="39.00" waitingCount="1" stopTime="0.00" timeLoss="59.15" rerouteNo="0" devices="tripinfo_44" vType="DEFAULT_VEHTYPE" speedFactor="1.10" vaporized=""/>
    <tripinfo id="42" depart="44.00" departLane="318908683#0_0" departPos="5.10" departSpeed="10.97" departDelay="0.00" arrival="162.00" arrivalLane="422688976#1_0" arrivalPos="294.40" arrivalSpeed="28.51" duration="118.00" routeLength="940.85" waitingTime="64.00" waitingCount="1" stopTime="0.00" timeLoss="82.59" rerouteNo="0" devices="tripinfo_42" vType="DEFAULT_VEHTYPE" speedFactor="1.05" vaporized=""/>
    <tripinfo id="5" depart="3.00" departLane="-260998164#3_0" departPos="5.10" departSpeed="30.08" departDelay="0.00" arrival="164.00" arrivalLane="422688976#1_0" arrivalPos="294.40" arrivalSpeed="23.76" duration="161.00" routeLength="1712.42" waitingTime="80.00" waitingCount="2" stopTime="0.00" timeLoss="103.49" rerouteNo="0" devices="tripinfo_5" vType="DEFAULT_VEHTYPE" speedFactor="1.08" vaporized=""/>
    <tripinfo id="22" depart="26.00" departLane="-260998164#3_0" departPos="5.10" departSpeed="24.24" departDelay="0.00" arrival="164.00" arrivalLane="422688976#1_1" arrivalPos="294.40" arrivalSpeed="23.27" duration="138.00" routeLength="1712.42" waitingTime="45.00" waitingCount="2" stopTime="0.00" timeLoss="65.63" rerouteNo="0" devices="tripinfo_22" vType="DEFAULT_VEHTYPE" speedFactor="0.87" vaporized=""/>
    <tripinfo id="118" depart="122.00" departLane="918280985_0" departPos="5.10" departSpeed="5.27" departDelay="6.00" arrival="165.00" arrivalLane="-318908683#1_0" arrivalPos="71.22" arrivalSpeed="11.78" duration="43.00" routeLength="674.50" waitingTime="0.00" waitingCount="0" stopTime="0.00" timeLoss="10.54" rerouteNo="0" devices="tripinfo_118" vType="DEFAULT_VEHTYPE" speedFactor="0.92" vaporized=""/>
    <tripinfo id="30" depart="30.00" departLane="422685671#2_0" departPos="5.10" departSpeed="30.62" departDelay="0.00" arrival="166.00" arrivalLane="422688976#1_1" arrivalPos="294.40" arrivalSpeed="29.44" duration="136.00" routeLength="1317.05" waitingTime="57.00" waitingCount="2" stopTime="0.00" timeLoss="90.52" rerouteNo="0" devices="tripinfo_30" vType="DEFAULT_VEHTYPE" speedFactor="1.10" vaporized=""/>
    <tripinfo id="36" depart="35.00" departLane="422688973_2" departPos="5.10" departSpeed="15.75" departDelay="0.00" arrival="166.00" arrivalLane="-105681660#20_0" arrivalPos="806.12" arrivalSpeed="18.77" duration="131.00" routeLength="1352.23" waitingTime="36.00" waitingCount="1" stopTime="0.00" timeLoss="47.46" rerouteNo="0" devices="tripinfo_36" vType="DEFAULT_VEHTYPE" speedFactor="0.90" vaporized=""/>
    <tripinfo id="69" depart="69.00" departLane="422688973_0" departPos="5.10" departSpeed="0.00" departDelay="0.00" arrival="168.00" arrivalLane="-597602753#1_0" arrivalPos="143.59" arrivalSpeed="17.73" duration="99.00" routeLength="1114.81" waitingTime="0.00" waitingCount="0" stopTime="0.00" timeLoss="19.91" rerouteNo="0" devices="tripinfo_69" vType="DEFAULT_VEHTYPE" speedFactor="0.83" vaporized=""/>
    <tripinfo id="18" depart="25.00" departLane="597602756#0_0" departPos="5.10" departSpeed="22.41" departDelay="0.00" arrival="170.00" arrivalLane="422688976#1_1" arrivalPos="294.40" arrivalSpeed="27.96" duration="145.00" routeLength="1985.14" waitingTime="34.00" waitingCount="2" stopTime="0.00" timeLoss="60.96" rerouteNo="0" devices="tripinfo_18" vType="DEFAULT_VEHTYPE" speedFactor="1.01" vaporized=""/>
    <tripinfo id="39" depart="37.00" departLane="422688973_1" departPos="5.10" departSpeed="13.62" departDelay="0.00" arrival="170.00" arrivalLane="-105681660#20_0" arrivalPos="806.12" arrivalSpeed="18.75" duration="133.00" routeLength="1352.23" waitingTime="33.00" waitingCount="1" stopTime="0.00" timeLoss="47.94" rerouteNo="0" devices="tripinfo_39" vType="DEFAULT_VEHTYPE" speedFactor="0.88" vaporized=""/>
    <tripinfo id="31" depart="31.00" departLane="-260998164#3_0" departPos="5.10" departSpeed="25.93" departDelay="1.00" arrival="171.00" arrivalLane="918280984_0" arrivalPos="38.78" arrivalSpeed="12.12" duration="140.00" routeLength="1465.15" waitingTime="61.00" waitingCount="2" stopTime="0.00" timeLoss="79.69" rerouteNo="0" devices="tripinfo_31" vType="DEFAULT_VEHTYPE" speedFactor="0.94" vaporized=""/>
    <tripinfo id="40" depart="41.00" departLane="422685671#2_0" departPos="5.10" departSpeed="29.55" departDelay="0.00" arrival="172.00" arrivalLane="422688976#1_1" arrivalPos="294.40" arrivalSpeed="29.40" duration="131.00" routeLength="1317.05" waitingTime="54.00" waitingCount="2" stopTime="0.00" timeLoss="83.79" rerouteNo="0" devices="tripinfo_40" vType="DEFAULT_VEHTYPE" speedFactor="1.06" vaporized=""/>
    <tripinfo id="117" depart="118.00" departLane="918280985_0" departPos="5.10" departSpeed="1.09" departDelay="3.00" arrival="172.00" arrivalLane="15374898#0-AddedOffRampEdge_0" arrivalPos="100.00" arrivalSpeed="29.43" duration="54.00" routeLength="996.81" waitingTime="0.00" waitingCount="0" stopTime="0.00" timeLoss="17.15" rerouteNo="0" devices="tripinfo_117" vType="DEFAULT_VEHTYPE" speedFactor="1.07" vaporized=""/>
    <tripinfo id="101" depart="99.00" departLane="422685671#2_0" departPos="5.10" departSpeed="28.67" departDelay="0.00" arrival="173.00" arrivalLane="918280984_0" arrivalPos="38.78" arrivalSpeed="13.24" duration="74.00" routeLength="1069.78" waitingTime="2.00" waitingCount="1" stopTime="0.00" timeLoss="30.91" rerouteNo="0" devices="tripinfo_101" vType="DEFAULT_VEHTYPE" speedFactor="1.03" vaporized=""/>
    <tripinfo id="95" depart="94.00" departLane="-260998164#3_0" departPos="5.10" departSpeed="28.43" departDelay="0.00" arrival="176.00" arrivalLane="-597602756#0_0" arrivalPos="325.99" arrivalSpeed="21.57" duration="82.00" routeLength="1231.40" waitingTime="0.00" waitingCount="0" stopTime="0.00" timeLoss="10.57" rerouteNo="0" devices="tripinfo_95" vType="DEFAULT_VEHTYPE" speedFactor="1.02" vaporized=""/>
    <tripinfo id="14" depart="20.00" departLane="422685671#2_0" departPos="5.10" departSpeed="28.95" departDelay="0.00" arrival="177.00" arrivalLane="-105681660#20_0" arrivalPos="806.12" arrivalSpeed="22.50" duration="157.00" routeLength="1813.05" waitingTime="59.00" waitingCount="1" stopTime="0.00" timeLoss="80.34" rerouteNo="0" devices="tripinfo_14" vType="DEFAULT_VEHTYPE" speedFactor="1.04" vaporized=""/>
    <tripinfo id="53" depart="55.00" departLane="318908683#0_0" departPos="5.10" departSpeed="12.60" departDelay="0.00" arrival="177.00" arrivalLane="260998164#0_0" arrivalPos="257.55" arrivalSpeed="24.84" duration="122.00" routeLength="939.98" waitingTime="71.00" waitingCount="1" stopTime="0.00" timeLoss="80.20" rerouteNo="0" devices="tripinfo_53" vType="DEFAULT_VEHTYPE" speedFactor="0.91" vaporized=""/>
    <tripinfo id="65" depart="63.00" departLane="105681660#12_0" departPos="5.10" departSpeed="22.60" departDelay="0.00" arrival="183.00" arrivalLane="-597602753#1_0" arrivalPos="143.59" arrivalSpeed="22.35" duration="120.00" routeLength="1380.56" waitingTime="38.00" waitingCount="3" stopTime="0.00" timeLoss="57.19" rerouteNo="0" devices="tripinfo_65" vType="DEFAULT_VEHTYPE" speedFactor="1.02" vaporized=""/>
    <tripinfo id="100" depart="98.00" departLane="597602756#0_0" departPos="5.10" departSpeed="24.51" departDelay="0.00" arrival="183.00" arrivalLane="260998164#0_0" arrivalPos="257.55" arrivalSpeed="30.11" duration="85.00" routeLength="1239.91" waitingTime="3.00" waitingCount="1" stopTime="0.00" timeLoss="19.05" rerouteNo="0" devices="tripinfo_100" vType="DEFAULT_VEHTYPE" speedFactor="1.10" vaporized=""/>
    <tripinfo id="15" depart="20.00" departLane="422685671#2_1" departPos="5.10" departSpeed="26.01" departDelay="0.00" arrival="186.00" arrivalLane="-105681660#20_0" arrivalPos="806.12" arrivalSpeed="20.25" duration="166.00" routeLength="1813.05" waitingTime="58.00" waitingCount="1" stopTime="0.00" timeLoss="80.56" rerouteNo="0" devices="tripinfo_15" vType="DEFAULT_VEHTYPE" speedFactor="0.94" vaporized=""/>
    <tripinfo id="17" depart="23.00" departLane="422685671#2_0" departPos="5.10" departSpeed="28.06" departDelay="0.00" arrival="188.00" arrivalLane="-105681660#20_0" arrivalPos="806.12" arrivalSpeed="21.86" duration="165.00" routeLength="1813.05" waitingTime="57.00" waitingCount="1" stopTime="0.00" timeLoss="83.97" rerouteNo="0" devices="tripinfo_17" vType="DEFAULT_VEHTYPE" speedFactor="1.01" vaporized=""/>
    <tripinfo id="52" depart="53.00" departLane="105681660#12_0" departPos="5.10" departSpeed="21.32" departDelay="0.00" arrival="189.00" arrivalLane="-597602756#0_0" arrivalPos="325.99" arrivalSpeed="20.23" duration="136.00" routeLength="1877.95" waitingTime="28.00" waitingCount="2" stopTime="0.00" timeLoss="45.20" rerouteNo="0" devices="tripinfo_52" vType="DEFAULT_VEHTYPE" speedFactor="0.96" vaporized=""/>
    <tripinfo id="56" depart="58.00" departLane="105681660#12_0" departPos="5.10" departSpeed="22.71" departDelay="0.00" arrival="190.00" arrivalLane="918280984_0" arrivalPos="38.78" arrivalSpeed="13.21" duration="132.00" routeLength="1405.13" waitingTime="30.00" waitingCount="3" stopTime="0.00" timeLoss="53.15" rerouteNo="0" devices="tripinfo_56" vType="DEFAULT_VEHTYPE" speedFactor="1.02" vaporized=""/>
    <tripinfo id="72" depart="76.00" departLane="318908683#0_0" departPos="5.10" departSpeed="11.96" departDelay="0.00" arrival="192.00" arrivalLane="260998164#0_0" arrivalPos="257.55" arrivalSpeed="23.11" duration="116.00" routeLength="939.98" waitingTime="57.00" waitingCount="1" stopTime="0.00" timeLoss="72.21" rerouteNo="0" devices="tripinfo_72" vType="DEFAULT_VEHTYPE" speedFactor="0.86" vaporized=""/>
    <tripinfo id="67" depart="67.00" departLane="918280985_0" departPos="5.10" departSpeed="12.91" departDelay="0.00" arrival="193.00" arrivalLane="-597602753#1_0" arrivalPos="143.59" arrivalSpeed="21.46" duration="126.00" routeLength="1123.56" waitingTime="37.00" waitingCount="3" stopTime="0.00" timeLoss="59.47" rerouteNo="0" devices="tripinfo_67" vType="DEFAULT_VEHTYPE" speedFactor="1.01" vaporized=""/>
    <tripinfo id="74" depart="77.00" departLane="318908683#0_0" departPos="5.10" departSpeed="9.08" departDelay="0.00" arrival="193.00" arrivalLane="260998164#0_0" arrivalPos="257.55" arrivalSpeed="26.08" duration="116.00" routeLength="939.98" waitingTime="57.00" waitingCount="1" stopTime="0.00" timeLoss="83.52" rerouteNo="0" devices="tripinfo_74" vType="DEFAULT_VEHTYPE" speedFactor="1.14" vaporized=""/>
    <tripinfo id="47" depart="47.00" departLane="422685671#2_1" departPos="5.10" departSpeed="28.44" departDelay="0.00" arrival="196.00" arrivalLane="-597602756#0_0" arrivalPos="325.99" arrivalSpeed="21.68" duration="149.00" routeLength="1778.05" waitingTime="41.00" waitingCount="1" stopTime="0.00" timeLoss="72.41" rerouteNo="0" devices="tripinfo_47" vType="DEFAULT_VEHTYPE" speedFactor="1.02" vaporized=""/>
    <tripinfo id="54" depart="55.00" departLane="918280985_0" departPos="5.10" departSpeed="13.16" departDelay="0.00" arrival="196.00" arrivalLane="-105681660#20_0" arrivalPos="806.12" arrivalSpeed="21.05" duration="141.00" routeLength="1360.98" waitingTime="45.00" waitingCount="2" stopTime="0.00" timeLoss="60.56" rerouteNo="0" devices="tripinfo_54" vType="DEFAULT_VEHTYPE" speedFactor="0.95" vaporized=""/>
    <tripinfo id="105" depart="104.00" departLane="422688973_2" departPos="5.10" departSpeed="2.12" departDelay="0.00" arrival="196.00" arrivalLane="15374898#0-AddedOffRampEdge_0" arrivalPos="100.00" arrivalSpeed="27.40" duration="92.00" routeLength="1006.54" waitingTime="33.00" waitingCount="1" stopTime="0.00" timeLoss="54.81" rerouteNo="0" devices="tripinfo_105" vType="DEFAULT_VEHTYPE" speedFactor="1.01" vaporized=""/>
    <tripinfo id="87" depart="85.00" departLane="422685671#2_0" departPos="5.10" departSpeed="30.46" departDelay="0.00" arrival="200.00" arrivalLane="-597602756#0_0" arrivalPos="325.99" arrivalSpeed="23.12" duration="115.00" routeLength="1778.05" waitingTime="11.00" waitingCount="1" stopTime="0.00" timeLoss="42.41" rerouteNo="0" devices="tripinfo_87" vType="DEFAULT_VEHTYPE" speedFactor="1.10" vaporized=""/>
    <tripinfo id="132" depart="131.00" departLane="422688973_2" departPos="5.10" departSpeed="2.12" departDelay="0.00" arrival="201.00" arrivalLane="15374898#0-AddedOffRampEdge_0" arrivalPos="100.00" arrivalSpeed="24.10" duration="70.00" routeLength="1006.54" waitingTime="10.00" waitingCount="1" stopTime="0.00" timeLoss="28.82" rerouteNo="0" devices="tripinfo_132" vType="DEFAULT_VEHTYPE" speedFactor="0.90" vaporized=""/>