<?xml version="1.0" encoding="UTF-8"?>

<!-- generated on 2023-04-29 21:24:18 by Eclipse SUMO sumo Version 1.16.0
<configuration xmlns:xsi="http://www.w3.org/2001/XMLSchema-instance" xsi:noNamespaceSchemaLocation="http://sumo.dlr.de/xsd/sumoConfiguration.xsd">

    <input>
        <net-file value="C:\Users\Local_Man\Desktop\Stolen%20Music\school%20stuff%20for%20college\Semester%2015%20(UH%20Graduate%20School)\COSC%206364%20Nikolaos\SUMO_Project\COSC6364_Project\configurations\maps\4corners_neighborhoods.net.xml"/>
        <route-files value="./configurations/Rounds/4corners_neighborhoods.net.xml-test-3/Macroscopic_DUE/019/Trips_File_019.rou.xml"/>
    </input>

    <output>
        <summary-output value="./configurations/Rounds/4corners_neighborhoods.net.xml-test-3/Macroscopic_DUE/019/summary.xml"/>
        <tripinfo-output value="./configurations/Rounds/4corners_neighborhoods.net.xml-test-3/Macroscopic_DUE/019/trips.trips.xml"/>
        <statistic-output value="./configurations/Rounds/4corners_neighborhoods.net.xml-test-3/Macroscopic_DUE/019/stats_output.xml"/>
    </output>

    <time>
        <begin value="0"/>
    </time>

    <report>
        <log value="./configurations/Rounds/4corners_neighborhoods.net.xml-test-3/Macroscopic_DUE/019/log.sumo.log"/>
        <no-step-log value="true"/>
    </report>

    <gui_only>
        <quit-on-end value="true"/>
    </gui_only>

</configuration>
-->

<tripinfos xmlns:xsi="http://www.w3.org/2001/XMLSchema-instance" xsi:noNamespaceSchemaLocation="http://sumo.dlr.de/xsd/tripinfo_file.xsd">
    <tripinfo id="5" depart="5.00" departLane="-260998164#3_0" departPos="5.10" departSpeed="33.35" departDelay="0.00" arrival="40.00" arrivalLane="-318908683#1_0" arrivalPos="71.22" arrivalSpeed="15.52" duration="35.00" routeLength="955.07" waitingTime="0.00" waitingCount="0" stopTime="0.00" timeLoss="2.21" rerouteNo="0" devices="tripinfo_5" vType="DEFAULT_VEHTYPE" speedFactor="1.20" vaporized=""/>
    <tripinfo id="19" depart="17.00" departLane="422685671#2_1" departPos="5.10" departSpeed="24.71" departDelay="0.00" arrival="80.00" arrivalLane="918280984_0" arrivalPos="38.78" arrivalSpeed="11.69" duration="63.00" routeLength="1069.78" waitingTime="3.00" waitingCount="1" stopTime="0.00" timeLoss="14.49" rerouteNo="0" devices="tripinfo_19" vType="DEFAULT_VEHTYPE" speedFactor="0.89" vaporized=""/>
    <tripinfo id="10" depart="8.00" departLane="105681660#12_0" departPos="5.10" departSpeed="20.28" departDelay="0.00" arrival="85.00" arrivalLane="-597602753#1_0" arrivalPos="143.59" arrivalSpeed="19.94" duration="77.00" routeLength="1380.56" waitingTime="0.00" waitingCount="0" stopTime="0.00" timeLoss="8.05" rerouteNo="0" devices="tripinfo_10" vType="DEFAULT_VEHTYPE" speedFactor="0.92" vaporized=""/>
    <tripinfo id="29" depart="33.00" departLane="318908683#0_0" departPos="5.10" departSpeed="13.06" departDelay="0.00" arrival="86.00" arrivalLane="260998164#0_0" arrivalPos="257.55" arrivalSpeed="25.61" duration="53.00" routeLength="939.98" waitingTime="4.00" waitingCount="1" stopTime="0.00" timeLoss="12.98" rerouteNo="0" devices="tripinfo_29" vType="DEFAULT_VEHTYPE" speedFactor="0.94" vaporized=""/>
    <tripinfo id="9" depart="7.00" departLane="-260998164#3_0" departPos="5.10" departSpeed="26.05" departDelay="0.00" arrival="95.00" arrivalLane="-597602756#0_0" arrivalPos="325.99" arrivalSpeed="19.74" duration="88.00" routeLength="1231.40" waitingTime="0.00" waitingCount="0" stopTime="0.00" timeLoss="9.81" rerouteNo="0" devices="tripinfo_9" vType="DEFAULT_VEHTYPE" speedFactor="0.94" vaporized=""/>
    <tripinfo id="4" depart="5.00" departLane="105681660#12_0" departPos="5.10" departSpeed="23.24" departDelay="0.00" arrival="98.00" arrivalLane="918280984_0" arrivalPos="38.78" arrivalSpeed="14.26" duration="93.00" routeLength="1405.13" waitingTime="0.00" waitingCount="0" stopTime="0.00" timeLoss="15.16" rerouteNo="0" devices="tripinfo_4" vType="DEFAULT_VEHTYPE" speedFactor="1.05" vaporized=""/>
    <tripinfo id="3" depart="2.00" departLane="422685671#2_0" departPos="5.10" departSpeed="30.08" departDelay="0.00" arrival="102.00" arrivalLane="-105681660#20_0" arrivalPos="806.12" arrivalSpeed="22.80" duration="100.00" routeLength="1813.05" waitingTime="5.00" waitingCount="1" stopTime="0.00" timeLoss="25.30" rerouteNo="0" devices="tripinfo_3" vType="DEFAULT_VEHTYPE" speedFactor="1.08" vaporized=""/>
    <tripinfo id="18" depart="16.00" departLane="422685671#2_1" departPos="5.10" departSpeed="28.59" departDelay="0.00" arrival="109.00" arrivalLane="-105681660#20_0" arrivalPos="806.12" arrivalSpeed="22.72" duration="93.00" routeLength="1813.05" waitingTime="0.00" waitingCount="0" stopTime="0.00" timeLoss="15.10" rerouteNo="0" devices="tripinfo_18" vType="DEFAULT_VEHTYPE" speedFactor="1.03" vaporized=""/>
    <tripinfo id="28" depart="31.00" departLane="918280985_0" departPos="5.10" departSpeed="10.50" departDelay="0.00" arrival="111.00" arrivalLane="260998164#0_0" arrivalPos="257.55" arrivalSpeed="26.11" duration="80.00" routeLength="1460.33" waitingTime="4.00" waitingCount="1" stopTime="0.00" timeLoss="21.03" rerouteNo="0" devices="tripinfo_28" vType="DEFAULT_VEHTYPE" speedFactor="0.97" vaporized=""/>
    <tripinfo id="16" depart="14.00" departLane="597602753#0_0" departPos="5.10" departSpeed="24.06" departDelay="0.00" arrival="117.00" arrivalLane="260998164#0_0" arrivalPos="257.55" arrivalSpeed="29.10" duration="103.00" routeLength="1937.50" waitingTime="0.00" waitingCount="0" stopTime="0.00" timeLoss="16.11" rerouteNo="0" devices="tripinfo_16" vType="DEFAULT_VEHTYPE" speedFactor="1.08" vaporized=""/>
    <tripinfo id="21" depart="19.00" departLane="422688973_0" departPos="5.10" departSpeed="0.00" departDelay="0.00" arrival="119.00" arrivalLane="-597602753#1_0" arrivalPos="143.59" arrivalSpeed="19.22" duration="100.00" routeLength="1114.81" waitingTime="6.00" waitingCount="2" stopTime="0.00" timeLoss="24.12" rerouteNo="0" devices="tripinfo_21" vType="DEFAULT_VEHTYPE" speedFactor="0.87" vaporized=""/>
    <tripinfo id="25" depart="29.00" departLane="597602753#0_0" departPos="5.10" departSpeed="25.65" departDelay="0.00" arrival="121.00" arrivalLane="-597602756#0_0" arrivalPos="325.99" arrivalSpeed="25.04" duration="92.00" routeLength="1646.04" waitingTime="8.00" waitingCount="1" stopTime="0.00" timeLoss="26.68" rerouteNo="0" devices="tripinfo_25" vType="DEFAULT_VEHTYPE" speedFactor="1.15" vaporized=""/>
    <tripinfo id="15" depart="13.00" departLane="422685671#2_0" departPos="5.10" departSpeed="28.95" departDelay="0.00" arrival="122.00" arrivalLane="260998164#0_0" arrivalPos="257.55" arrivalSpeed="28.41" duration="109.00" routeLength="1329.43" waitingTime="50.00" waitingCount="1" stopTime="0.00" timeLoss="62.16" rerouteNo="0" devices="tripinfo_15" vType="DEFAULT_VEHTYPE" speedFactor="1.04" vaporized=""/>
    <tripinfo id="17" depart="15.00" departLane="918280985_0" departPos="5.10" departSpeed="13.00" departDelay="0.00" arrival="124.00" arrivalLane="-597602753#1_0" arrivalPos="143.59" arrivalSpeed="22.16" duration="109.00" routeLength="1072.66" waitingTime="19.00" waitingCount="1" stopTime="0.00" timeLoss="35.99" rerouteNo="0" devices="tripinfo_17" vType="DEFAULT_VEHTYPE" speedFactor="1.01" vaporized=""/>
    <tripinfo id="38" depart="49.00" departLane="422685671#2_0" departPos="5.10" departSpeed="28.36" departDelay="0.00" arrival="125.00" arrivalLane="260998164#0_0" arrivalPos="257.55" arrivalSpeed="27.54" duration="76.00" routeLength="1329.43" waitingTime="15.00" waitingCount="1" stopTime="0.00" timeLoss="28.44" rerouteNo="0" devices="tripinfo_38" vType="DEFAULT_VEHTYPE" speedFactor="1.02" vaporized=""/>
    <tripinfo id="12" depart="12.00" departLane="597602756#0_0" departPos="5.10" departSpeed="20.59" departDelay="0.00" arrival="126.00" arrivalLane="-597602753#1_0" arrivalPos="143.59" arrivalSpeed="19.55" duration="114.00" routeLength="1638.96" waitingTime="14.00" waitingCount="1" stopTime="0.00" timeLoss="32.78" rerouteNo="0" devices="tripinfo_12" vType="DEFAULT_VEHTYPE" speedFactor="0.93" vaporized=""/>
    <tripinfo id="7" depart="7.00" departLane="918280985_0" departPos="5.10" departSpeed="14.88" departDelay="0.00" arrival="127.00" arrivalLane="-105681660#20_0" arrivalPos="806.12" arrivalSpeed="24.05" duration="120.00" routeLength="1360.98" waitingTime="29.00" waitingCount="2" stopTime="0.00" timeLoss="50.11" rerouteNo="0" devices="tripinfo_7" vType="DEFAULT_VEHTYPE" speedFactor="1.09" vaporized=""/>
    <tripinfo id="42" depart="51.00" departLane="422688973_0" departPos="5.10" departSpeed="15.75" departDelay="0.00" arrival="133.00" arrivalLane="-318908683#1_0" arrivalPos="71.22" arrivalSpeed="14.24" duration="82.00" routeLength="684.23" waitingTime="44.00" waitingCount="1" stopTime="0.00" timeLoss="55.12" rerouteNo="0" devices="tripinfo_42" vType="DEFAULT_VEHTYPE" speedFactor="1.05" vaporized=""/>
    <tripinfo id="6" depart="5.00" departLane="918280985_0" departPos="5.10" departSpeed="14.97" departDelay="0.00" arrival="139.00" arrivalLane="-597602756#0_0" arrivalPos="325.99" arrivalSpeed="23.05" duration="134.00" routeLength="1890.39" waitingTime="28.00" waitingCount="1" stopTime="0.00" timeLoss="54.98" rerouteNo="0" devices="tripinfo_6" vType="DEFAULT_VEHTYPE" speedFactor="1.08" vaporized=""/>
    <tripinfo id="23" depart="22.00" departLane="422685671#2_1" departPos="5.10" departSpeed="31.44" departDelay="0.00" arrival="139.00" arrivalLane="422688976#1_0" arrivalPos="294.40" arrivalSpeed="30.41" duration="117.00" routeLength="1317.05" waitingTime="52.00" waitingCount="1" stopTime="0.00" timeLoss="73.50" rerouteNo="0" devices="tripinfo_23" vType="DEFAULT_VEHTYPE" speedFactor="1.13" vaporized=""/>
    <tripinfo id="33" depart="38.00" departLane="597602756#0_0" departPos="5.10" departSpeed="22.90" departDelay="0.00" arrival="139.00" arrivalLane="-105681660#20_0" arrivalPos="806.12" arrivalSpeed="22.14" duration="101.00" routeLength="1867.67" waitingTime="0.00" waitingCount="0" stopTime="0.00" timeLoss="18.10" rerouteNo="0" devices="tripinfo_33" vType="DEFAULT_VEHTYPE" speedFactor="1.03" vaporized=""/>
    <tripinfo id="36" depart="44.00" departLane="318908683#0_0" departPos="5.10" departSpeed="10.70" departDelay="0.00" arrival="142.00" arrivalLane="422688976#1_0" arrivalPos="294.40" arrivalSpeed="21.08" duration="98.00" routeLength="940.85" waitingTime="38.00" waitingCount="1" stopTime="0.00" timeLoss="50.32" rerouteNo="0" devices="tripinfo_36" vType="DEFAULT_VEHTYPE" speedFactor="0.77" vaporized=""/>
    <tripinfo id="69" depart="82.00" departLane="918280985_0" departPos="5.10" departSpeed="1.80" departDelay="0.00" arrival="142.00" arrivalLane="-318908683#1_0" arrivalPos="71.22" arrivalSpeed="11.39" duration="60.00" routeLength="674.50" waitingTime="9.00" waitingCount="1" stopTime="0.00" timeLoss="23.65" rerouteNo="0" devices="tripinfo_69" vType="DEFAULT_VEHTYPE" speedFactor="0.83" vaporized=""/>
    <tripinfo id="22" depart="21.00" departLane="597602753#0_0" departPos="5.10" departSpeed="22.93" departDelay="0.00" arrival="144.00" arrivalLane="422688976#1_1" arrivalPos="294.40" arrivalSpeed="28.66" duration="123.00" routeLength="1788.22" waitingTime="16.00" waitingCount="2" stopTime="0.00" timeLoss="49.90" rerouteNo="0" devices="tripinfo_22" vType="DEFAULT_VEHTYPE" speedFactor="1.03" vaporized=""/>
    <tripinfo id="40" depart="49.00" departLane="597602756#0_0" departPos="5.10" departSpeed="23.64" departDelay="0.00" arrival="145.00" arrivalLane="260998164#0_0" arrivalPos="257.55" arrivalSpeed="29.22" duration="96.00" routeLength="1239.91" waitingTime="13.00" waitingCount="1" stopTime="0.00" timeLoss="27.24" rerouteNo="0" devices="tripinfo_40" vType="DEFAULT_VEHTYPE" speedFactor="1.06" vaporized=""/>
    <tripinfo id="44" depart="54.00" departLane="-260998164#3_0" departPos="5.10" departSpeed="27.87" departDelay="0.00" arrival="149.00" arrivalLane="918280984_0" arrivalPos="38.78" arrivalSpeed="13.79" duration="95.00" routeLength="1455.19" waitingTime="26.00" waitingCount="1" stopTime="0.00" timeLoss="38.96" rerouteNo="0" devices="tripinfo_44" vType="DEFAULT_VEHTYPE" speedFactor="1.00" vaporized=""/>
    <tripinfo id="61" depart="72.00" departLane="-260998164#3_0" departPos="5.10" departSpeed="30.19" departDelay="0.00" arrival="149.00" arrivalLane="-597602756#0_0" arrivalPos="325.99" arrivalSpeed="23.18" duration="77.00" routeLength="1231.40" waitingTime="0.00" waitingCount="0" stopTime="0.00" timeLoss="10.06" rerouteNo="0" devices="tripinfo_61" vType="DEFAULT_VEHTYPE" speedFactor="1.09" vaporized=""/>
    <tripinfo id="66" depart="80.00" departLane="918280985_0" departPos="5.10" departSpeed="7.50" departDelay="0.00" arrival="149.00" arrivalLane="15374898#0-AddedOffRampEdge_0" arrivalPos="100.00" arrivalSpeed="26.32" duration="69.00" routeLength="996.81" waitingTime="10.00" waitingCount="1" stopTime="0.00" timeLoss="28.87" rerouteNo="0" devices="tripinfo_66" vType="DEFAULT_VEHTYPE" speedFactor="0.98" vaporized=""/>
    <tripinfo id="85" depart="103.00" departLane="918280985_0" departPos="5.10" departSpeed="1.34" departDelay="2.00" arrival="149.00" arrivalLane="-318908683#1_0" arrivalPos="71.22" arrivalSpeed="10.84" duration="46.00" routeLength="674.50" waitingTime="0.00" waitingCount="0" stopTime="0.00" timeLoss="10.89" rerouteNo="0" devices="tripinfo_85" vType="DEFAULT_VEHTYPE" speedFactor="0.87" vaporized=""/>
    <tripinfo id="14" depart="13.00" departLane="597602756#0_0" departPos="5.10" departSpeed="18.24" departDelay="0.00" arrival="151.00" arrivalLane="918280984_0" arrivalPos="38.78" arrivalSpeed="11.92" duration="138.00" routeLength="1737.87" waitingTime="28.00" waitingCount="2" stopTime="0.00" timeLoss="54.55" rerouteNo="0" devices="tripinfo_14" vType="DEFAULT_VEHTYPE" speedFactor="0.94" vaporized=""/>
    <tripinfo id="2" depart="1.00" departLane="422688973_0" departPos="5.10" departSpeed="27.09" departDelay="0.00" arrival="152.00" arrivalLane="-597602756#0_0" arrivalPos="325.99" arrivalSpeed="21.51" duration="151.00" routeLength="1901.28" waitingTime="37.00" waitingCount="1" stopTime="0.00" timeLoss="57.20" rerouteNo="0" devices="tripinfo_2" vType="DEFAULT_VEHTYPE" speedFactor="0.98" vaporized=""/>
    <tripinfo id="27" depart="30.00" departLane="597602756#0_0" departPos="5.10" departSpeed="22.10" departDelay="0.00" arrival="153.00" arrivalLane="918280984_0" arrivalPos="38.78" arrivalSpeed="12.68" duration="123.00" routeLength="1737.87" waitingTime="15.00" waitingCount="2" stopTime="0.00" timeLoss="43.51" rerouteNo="0" devices="tripinfo_27" vType="DEFAULT_VEHTYPE" speedFactor="0.99" vaporized=""/>
    <tripinfo id="49" depart="62.00" departLane="597602753#0_0" departPos="5.10" departSpeed="23.52" departDelay="0.00" arrival="154.00" arrivalLane="-597602756#0_0" arrivalPos="325.99" arrivalSpeed="24.11" duration="92.00" routeLength="1646.04" waitingTime="3.00" waitingCount="1" stopTime="0.00" timeLoss="24.01" rerouteNo="0" devices="tripinfo_49" vType="DEFAULT_VEHTYPE" speedFactor="1.12" vaporized=""/>
    <tripinfo id="26" depart="30.00" departLane="422685671#2_0" departPos="5.10" departSpeed="31.16" departDelay="0.00" arrival="155.00" arrivalLane="918280984_0" arrivalPos="38.78" arrivalSpeed="14.73" duration="125.00" routeLength="1069.78" waitingTime="63.00" waitingCount="2" stopTime="0.00" timeLoss="85.69" rerouteNo="0" devices="tripinfo_26" vType="DEFAULT_VEHTYPE" speedFactor="1.12" vaporized=""/>
    <tripinfo id="32" depart="37.00" departLane="-260998164#3_0" departPos="5.10" departSpeed="23.20" departDelay="0.00" arrival="158.00" arrivalLane="-597602753#1_0" arrivalPos="143.59" arrivalSpeed="18.20" duration="121.00" routeLength="1969.75" waitingTime="4.00" waitingCount="1" stopTime="0.00" timeLoss="22.78" rerouteNo="0" devices="tripinfo_32" vType="DEFAULT_VEHTYPE" speedFactor="0.83" vaporized=""/>
    <tripinfo id="47" depart="57.00" departLane="318908683#0_0" departPos="5.10" departSpeed="14.22" departDelay="0.00" arrival="161.00" arrivalLane="260998164#0_0" arrivalPos="257.55" arrivalSpeed="28.00" duration="104.00" routeLength="939.98" waitingTime="58.00" waitingCount="1" stopTime="0.00" timeLoss="67.20" rerouteNo="0" devices="tripinfo_47" vType="DEFAULT_VEHTYPE" speedFactor="1.02" vaporized=""/>
    <tripinfo id="104" depart="120.00" departLane="422688973_2" departPos="5.10" departSpeed="2.37" departDelay="0.00" arrival="162.00" arrivalLane="-318908683#1_0" arrivalPos="71.22" arrivalSpeed="13.19" duration="42.00" routeLength="684.23" waitingTime="0.00" waitingCount="0" stopTime="0.00" timeLoss="14.09" rerouteNo="0" devices="tripinfo_104" vType="DEFAULT_VEHTYPE" speedFactor="1.01" vaporized=""/>
    <tripinfo id="106" depart="121.00" departLane="422688973_2" departPos="5.10" departSpeed="2.37" departDelay="0.00" arrival="164.00" arrivalLane="-318908683#1_0" arrivalPos="71.22" arrivalSpeed="12.26" duration="43.00" routeLength="684.23" waitingTime="0.00" waitingCount="0" stopTime="0.00" timeLoss="13.44" rerouteNo="0" devices="tripinfo_106" vType="DEFAULT_VEHTYPE" speedFactor="0.95" vaporized=""/>
    <tripinfo id="43" depart="54.00" departLane="422688973_0" departPos="5.10" departSpeed="0.00" departDelay="0.00" arrival="165.00" arrivalLane="-597602753#1_0" arrivalPos="143.59" arrivalSpeed="24.21" duration="111.00" routeLength="1063.91" waitingTime="17.00" waitingCount="2" stopTime="0.00" timeLoss="45.27" rerouteNo="0" devices="tripinfo_43" vType="DEFAULT_VEHTYPE" speedFactor="1.10" vaporized=""/>
    <tripinfo id="108" depart="123.00" departLane="422688973_2" departPos="5.10" departSpeed="2.37" departDelay="0.00" arrival="166.00" arrivalLane="-318908683#1_0" arrivalPos="71.22" arrivalSpeed="14.38" duration="43.00" routeLength="684.23" waitingTime="0.00" waitingCount="0" stopTime="0.00" timeLoss="16.08" rerouteNo="0" devices="tripinfo_108" vType="DEFAULT_VEHTYPE" speedFactor="1.06" vaporized=""/>
    <tripinfo id="13" depart="12.00" departLane="105681660#12_0" departPos="5.10" departSpeed="20.01" departDelay="0.00" arrival="169.00" arrivalLane="918280984_0" arrivalPos="38.78" arrivalSpeed="11.78" duration="157.00" routeLength="1405.13" waitingTime="49.00" waitingCount="2" stopTime="0.00" timeLoss="66.73" rerouteNo="0" devices="tripinfo_13" vType="DEFAULT_VEHTYPE" speedFactor="0.90" vaporized=""/>
    <tripinfo id="99" depart="114.00" departLane="422688973_0" departPos="5.10" departSpeed="15.75" departDelay="0.00" arrival="169.00" arrivalLane="15374898#0-AddedOffRampEdge_0" arrivalPos="100.00" arrivalSpeed="30.42" duration="55.00" routeLength="1006.54" waitingTime="2.00" waitingCount="1" stopTime="0.00" timeLoss="21.56" rerouteNo="0" devices="tripinfo_99" vType="DEFAULT_VEHTYPE" speedFactor="1.10" vaporized=""/>
    <tripinfo id="77" depart="92.00" departLane="318908683#0_0" departPos="5.10" departSpeed="13.45" departDelay="0.00" arrival="171.00" arrivalLane="260998164#0_0" arrivalPos="257.55" arrivalSpeed="26.12" duration="79.00" routeLength="939.98" waitingTime="29.00" waitingCount="1" stopTime="0.00" timeLoss="39.88" rerouteNo="0" devices="tripinfo_77" vType="DEFAULT_VEHTYPE" speedFactor="0.97" vaporized=""/>
    <tripinfo id="34" depart="40.00" departLane="105681660#12_0" departPos="5.10" departSpeed="23.68" departDelay="0.00" arrival="172.00" arrivalLane="918280984_0" arrivalPos="38.78" arrivalSpeed="13.59" duration="132.00" routeLength="1405.13" waitingTime="31.00" waitingCount="1" stopTime="0.00" timeLoss="56.32" rerouteNo="0" devices="tripinfo_34" vType="DEFAULT_VEHTYPE" speedFactor="1.07" vaporized=""/>
    <tripinfo id="81" depart="96.00" departLane="318908683#0_0" departPos="5.10" departSpeed="13.42" departDelay="0.00" arrival="172.00" arrivalLane="260998164#0_0" arrivalPos="257.55" arrivalSpeed="28.27" duration="76.00" routeLength="939.98" waitingTime="27.00" waitingCount="1" stopTime="0.00" timeLoss="41.14" rerouteNo="0" devices="tripinfo_81" vType="DEFAULT_VEHTYPE" speedFactor="1.08" vaporized=""/>
    <tripinfo id="90" depart="109.00" departLane="318908683#0_0" departPos="5.10" departSpeed="8.47" departDelay="0.00" arrival="176.00" arrivalLane="260998164#0_0" arrivalPos="257.55" arrivalSpeed="27.26" duration="67.00" routeLength="939.98" waitingTime="18.00" waitingCount="1" stopTime="0.00" timeLoss="29.19" rerouteNo="0" devices="tripinfo_90" vType="DEFAULT_VEHTYPE" speedFactor="0.99" vaporized=""/>
    <tripinfo id="30" depart="33.00" departLane="105681660#12_0" departPos="5.10" departSpeed="22.66" departDelay="0.00" arrival="179.00" arrivalLane="422688976#1_0" arrivalPos="294.40" arrivalSpeed="27.79" duration="146.00" routeLength="1630.66" waitingTime="34.00" waitingCount="2" stopTime="0.00" timeLoss="60.29" rerouteNo="0" devices="tripinfo_30" vType="DEFAULT_VEHTYPE" speedFactor="1.02" vaporized=""/>
    <tripinfo id="92" depart="109.00" departLane="105681660#12_0" departPos="5.10" departSpeed="25.13" departDelay="0.00" arrival="179.00" arrivalLane="-597602753#1_0" arrivalPos="143.59" arrivalSpeed="24.38" duration="70.00" routeLength="1380.56" waitingTime="0.00" waitingCount="0" stopTime="0.00" timeLoss="13.30" rerouteNo="0" devices="tripinfo_92" vType="DEFAULT_VEHTYPE" speedFactor="1.13" vaporized=""/>
    <tripinfo id="24" depart="26.00" departLane="422688973_0" departPos="5.10" departSpeed="0.00" departDelay="0.00" arrival="182.00" arrivalLane="-105681660#20_0" arrivalPos="806.12" arrivalSpeed="19.16" duration="156.00" routeLength="1352.23" waitingTime="51.00" waitingCount="2" stopTime="0.00" timeLoss="72.43" rerouteNo="0" devices="tripinfo_24" vType="DEFAULT_VEHTYPE" speedFactor="0.89" vaporized=""/>
    <tripinfo id="80" depart="96.00" departLane="597602756#0_0" departPos="5.10" departSpeed="22.99" departDelay="0.00" arrival="183.00" arrivalLane="260998164#0_0" arrivalPos="257.55" arrivalSpeed="28.32" duration="87.00" routeLength="1239.91" waitingTime="3.00" waitingCount="1" stopTime="0.00" timeLoss="16.11" rerouteNo="0" devices="tripinfo_80" vType="DEFAULT_VEHTYPE" speedFactor="1.03" vaporized=""/>
    <tripinfo id="31" depart="35.00" departLane="422688973_0" departPos="5.10" departSpeed="0.00" departDelay="0.00" arrival="184.00" arrivalLane="-597602753#1_0" arrivalPos="143.59" arrivalSpeed="24.41" duration="149.00" routeLength="1114.81" waitingTime="57.00" waitingCount="3" stopTime="0.00" timeLoss="89.09" rerouteNo="0" devices="tripinfo_31" vType="DEFAULT_VEHTYPE" speedFactor="1.10" vaporized=""/>
    <tripinfo id="59" depart="69.00" departLane="105681660#12_0" departPos="5.10" departSpeed="22.94" departDelay="0.00" arrival="184.00" arrivalLane="422688976#1_0" arrivalPos="294.40" arrivalSpeed="28.49" duration="115.00" routeLength="1630.66" waitingTime="10.00" waitingCount="1" stopTime="0.00" timeLoss="30.05" rerouteNo="0" devices="tripinfo_59" vType="DEFAULT_VEHTYPE" speedFactor="1.03" vaporized=""/>
    <tripinfo id="56" depart="67.00" departLane="597602753#0_0" departPos="5.10" departSpeed="20.62" departDelay="0.00" arrival="190.00" arrivalLane="-597602756#0_0" arrivalPos="325.99" arrivalSpeed="19.79" duration="123.00" routeLength="1646.04" waitingTime="16.00" waitingCount="1" stopTime="0.00" timeLoss="41.20" rerouteNo="0" devices="tripinfo_56" vType="DEFAULT_VEHTYPE" speedFactor="0.93" vaporized=""/>
    <tripinfo id="75" depart="87.00" departLane="422685671#2_0" departPos="5.10" departSpeed="30.48" departDelay="0.00" arrival="192.00" arrivalLane="422688976#1_1" arrivalPos="294.40" arrivalSpeed="30.41" duration="105.00" routeLength="1317.05" waitingTime="29.00" waitingCount="1" stopTime="0.00" timeLoss="59.99" rerouteNo="0" devices="tripinfo_75" vType="DEFAULT_VEHTYPE" speedFactor="1.10" vaporized=""/>
    <tripinfo id="63" depart="77.00" departLane="422685671#2_0" departPos="5.10" departSpeed="30.06" departDelay="0.00" arrival="193.00" arrivalLane="422688976#1_0" arrivalPos="294.40" arrivalSpeed="29.34" duration="116.00" routeLength="1317.05" waitingTime="43.00" waitingCount="2" stopTime="0.00" timeLoss="69.67" rerouteNo="0" devices="tripinfo_63" vType="DEFAULT_VEHTYPE" speedFactor="1.08" vaporized=""/>
    <tripinfo id="37" depart="44.00" departLane="597602753#0_0" departPos="5.10" departSpeed="20.01" departDelay="0.00" arrival="194.00" arrivalLane="422688976#1_2" arrivalPos="294.40" arrivalSpeed="24.17" duration="150.00" routeLength="1788.22" waitingTime="34.00" waitingCount="2" stopTime="0.00" timeLoss="66.83" rerouteNo="0" devices="tripinfo_37" vType="DEFAULT_VEHTYPE" speedFactor="0.90" vaporized=""/>
    <tripinfo id="52" depart="64.00" departLane="422685671#2_0" departPos="5.10" departSpeed="26.66" departDelay="0.00" arrival="201.00" arrivalLane="-105681660#20_0" arrivalPos="806.12" arrivalSpeed="20.72" duration="137.00" routeLength="1813.05" waitingTime="31.00" waitingCount="2" stopTime="0.00" timeLoss="53.18" rerouteNo="0" devices="tripinfo_52" vType="DEFAULT_VEHTYPE" speedFactor="0.96" vaporized=""/>
    <tripinfo id="65" depart="80.00" departLane="318908683#0_0" departPos="5.10" departSpeed="13.56" departDelay="0.00" arrival="201.00" arrivalLane="-597602753#1_0" arrivalPos="143.59" arrivalSpeed="21.40" duration="121.00" routeLength="1208.14" waitingTime="39.00" waitingCount="1" stopTime="0.00" timeLoss="63.26" rerouteNo="0" devices="tripinfo_65" vType="DEFAULT_VEHTYPE" speedFactor="0.98" vaporized=""/>
    <tripinfo id="48" depart="60.00" departLane="597602753#0_0" departPos="5.10" departSpeed="22.15" departDelay="0.00" arrival="202.00" arrivalLane="918280984_0" arrivalPos="38.78" arrivalSpeed="13.12" duration="142.00" routeLength="1540.95" waitingTime="38.00" waitingCount="3" stopTime="0.00" timeLoss="73.01" rerouteNo="0" devices="tripinfo_48" vType="DEFAULT_VEHTYPE" speedFactor="1.00" vaporized=""/>
    <tripinfo id="82" depart="97.00" departLane="422685671#2_0" departPos="5.10" departSpeed="27.15" departDelay="0.00" arrival="203.00" arrivalLane="-105681660#20_0" arrivalPos="806.12" arrivalSpeed="21.33" duration="106.00" routeLength="1813.05" waitingTime="6.00" waitingCount="1" stopTime="0.00" timeLoss="23.67" rerouteNo="0" devices="tripinfo_82" vType="DEFAULT_VEHTYPE" speedFactor="0.98" vaporized=""/>
    <tripinfo id="73" depart="86.00" departLane="597602756#0_0" departPos="5.10" departSpeed="25.38" departDelay="0.00" arrival="205.00" arrivalLane="-105681660#20_0" arrivalPos="806.12" arrivalSpeed="24.18" duration="119.00" routeLength="1867.67" waitingTime="10.00" waitingCount="2" stopTime="0.00" timeLoss="43.50" rerouteNo="0" devices="tripinfo_73" vType="DEFAULT_VEHTYPE" speedFactor="1.14" vaporized=""/>
    <tripinfo id="124" depart="144.00" departLane="318908683#0_0" departPos="5.10" departSpeed="11.18" departDelay="0.00" arrival="205.00" arrivalLane="918280984_0" arrivalPos="38.78" arrivalSpeed="10.71" duration="61.00" routeLength="693.58" waitingTime="12.00" waitingCount="1" stopTime="0.00" timeLoss="22.40" rerouteNo="0" devices="tripinfo_124" vType="DEFAULT_VEHTYPE" speedFactor="0.80" vaporized=""/>
    <tripinfo id="8" depart="7.00" departLane="105681660#12_0" departPos="5.10" departSpeed="22.60" departDelay="0.00" arrival="206.00" arrivalLane="15374898#0-AddedOffRampEdge_1" arrivalPos="100.00" arrivalSpeed="28.13" duration="199.00" routeLength="2213.07" waitingTime="60.00" waitingCount="1" stopTime="0.00" timeLoss="93.32" rerouteNo="0" devices="tripinfo_8" vType="DEFAULT_VEHTYPE" speedFactor="1.02" vaporized=""/>
    <tripinfo id="67" depart="81.00" departLane="-260998164#3_0" departPos="5.10" departSpeed="27.98" departDelay="0.00" arrival="207.00" arrivalLane="15374898#0-AddedOffRampEdge_0" arrivalPos="100.00" arrivalSpeed="27.59" duration="126.00" routeLength="1332.80" waitingTime="66.00" waitingCount="1" stopTime="0.00" timeLoss="77.54" rerouteNo="0" devices="tripinfo_67" vType="DEFAULT_VEHTYPE" speedFactor="1.01" vaporized=""/>
    <tripinfo id="76" depart="91.00" departLane="597602756#0_0" departPos="5.10" departSpeed="25.42" departDelay="0.00" arrival="207.00" arrivalLane="918280984_0" arrivalPos="38.78" arrivalSpeed="14.79" duration="116.00" routeLength="1737.87" waitingTime="9.00" waitingCount="2" stopTime="0.00" timeLoss="47.01" rerouteNo="0" devices="tripinfo_76" vType="DEFAULT_VEHTYPE" speedFactor="1.14" vaporized=""/>
    <tripinfo id="11" depart="10.00" departLane="105681660#12_0" departPos="5.10" departSpeed="22.24" departDelay="0.00" arrival="208.00" arrivalLane="15374898#0-AddedOffRampEdge_1" arrivalPos="100.00" arrivalSpeed="30.45" duration="198.00" routeLength="2213.07" waitingTime="58.00" waitingCount="1" stopTime="0.00" timeLoss="101.17" rerouteNo="0" devices="tripinfo_11" vType="DEFAULT_VEHTYPE" speedFactor="1.12" vaporized=""/>
    <tripinfo id="50" depart="63.00" departLane="318908683#0_0" departPos="5.10" departSpeed="13.86" departDelay="0.00" arrival="208.00" arrivalLane="-105681660#20_0" arrivalPos="806.12" arrivalSpeed="20.94" duration="145.00" routeLength="1436.85" waitingTime="52.00" waitingCount="1" stopTime="0.00" timeLoss="77.21" rerouteNo="0" devices="tripinfo_50" vType="DEFAULT_VEHTYPE" speedFactor="1.00" vaporized=""/>
    <tripinfo id="115" depart="132.00" departLane="-260998164#3_0" departPos="5.10" departSpeed="28.89" departDelay="0.00" arrival="208.00" arrivalLane="918280984_0" arrivalPos="38.78" arrivalSpeed="14.31" duration="76.00" routeLength="1455.19" waitingTime="4.00" waitingCount="1" stopTime="0.00" timeLoss="22.05" rerouteNo="0" devices="tripinfo_115" vType="DEFAULT_VEHTYPE" speedFactor="1.04" vaporized=""/>
    <tripinfo id="100" depart="114.00" departLane="318908683#0_0" departPos="5.10" departSpeed="4.73" departDelay="0.00" arrival="209.00" arrivalLane="-597602756#0_0" arrivalPos="325.99" arrivalSpeed="24.22" duration="95.00" routeLength="1401.85" waitingTime="13.00" waitingCount="1" stopTime="0.00" timeLoss="36.03" rerouteNo="0" devices="tripinfo_100" vType="DEFAULT_VEHTYPE" speedFactor="1.12" vaporized=""/>