<?xml version="1.0" encoding="UTF-8"?>

<!-- generated on 2023-04-28 19:40:36 by Eclipse SUMO sumo Version 1.16.0
<configuration xmlns:xsi="http://www.w3.org/2001/XMLSchema-instance" xsi:noNamespaceSchemaLocation="http://sumo.dlr.de/xsd/sumoConfiguration.xsd">

    <input>
        <net-file value="013/../configurations/maps/Braess_Homebrew_fixed1.net.xml"/>
        <route-files value="013/Trips_File_013.rou.xml"/>
        <additional-files value="013/../edgedata.add.xml"/>
    </input>

    <output>
        <output-prefix value="013/"/>
        <summary-output value="013/../summary_013.xml"/>
        <tripinfo-output value="013/../tripinfo_013.xml"/>
    </output>

    <time>
        <begin value="0"/>
    </time>

    <processing>
        <route-steps value="200"/>
        <no-internal-links value="False"/>
        <time-to-teleport value="300"/>
        <time-to-teleport.highways value="0"/>
        <eager-insert value="False"/>
    </processing>

    <report>
        <verbose value="true"/>
        <no-warnings value="False"/>
        <log value="013/../iteration_013.sumo.log"/>
        <no-step-log value="true"/>
    </report>

    <mesoscopic>
        <mesosim value="true"/>
        <meso-recheck value="0"/>
    </mesoscopic>

    <random_number>
        <random value="False"/>
    </random_number>

</configuration>
-->

<tripinfos xmlns:xsi="http://www.w3.org/2001/XMLSchema-instance" xsi:noNamespaceSchemaLocation="http://sumo.dlr.de/xsd/tripinfo_file.xsd">
    <tripinfo id="2" depart="0.00" departLane="" departPos="0.00" departSpeed="21.20" departDelay="0.00" arrival="75.00" arrivalLane="" arrivalPos="90.46" arrivalSpeed="31.80" duration="75.00" routeLength="1190.91" waitingTime="0.00" waitingCount="0" stopTime="0.00" timeLoss="0.00" rerouteNo="0" devices="tripinfo_2" vType="DEFAULT_VEHTYPE" speedFactor="1.06" vaporized=""/>
    <tripinfo id="4" depart="1.00" departLane="" departPos="0.00" departSpeed="15.92" departDelay="0.00" arrival="78.00" arrivalLane="" arrivalPos="90.46" arrivalSpeed="30.31" duration="77.00" routeLength="1188.76" waitingTime="0.00" waitingCount="0" stopTime="0.00" timeLoss="1.71" rerouteNo="0" devices="tripinfo_4" vType="DEFAULT_VEHTYPE" speedFactor="1.01" vaporized=""/>
    <tripinfo id="5" depart="1.00" departLane="" departPos="0.00" departSpeed="13.42" departDelay="0.00" arrival="79.00" arrivalLane="" arrivalPos="90.46" arrivalSpeed="30.83" duration="78.00" routeLength="1188.76" waitingTime="0.37" waitingCount="0" stopTime="0.00" timeLoss="8.08" rerouteNo="0" devices="tripinfo_5" vType="DEFAULT_VEHTYPE" speedFactor="1.08" vaporized=""/>
    <tripinfo id="3" depart="0.00" departLane="" departPos="0.00" departSpeed="16.99" departDelay="0.00" arrival="86.00" arrivalLane="" arrivalPos="90.46" arrivalSpeed="28.15" duration="86.00" routeLength="1190.91" waitingTime="0.00" waitingCount="0" stopTime="0.00" timeLoss="0.72" rerouteNo="0" devices="tripinfo_3" vType="DEFAULT_VEHTYPE" speedFactor="0.94" vaporized=""/>
    <tripinfo id="6" depart="1.00" departLane="" departPos="0.00" departSpeed="11.60" departDelay="0.00" arrival="87.00" arrivalLane="" arrivalPos="90.46" arrivalSpeed="30.91" duration="86.00" routeLength="1190.91" waitingTime="0.00" waitingCount="0" stopTime="0.00" timeLoss="8.85" rerouteNo="0" devices="tripinfo_6" vType="DEFAULT_VEHTYPE" speedFactor="1.03" vaporized=""/>
    <tripinfo id="8" depart="8.00" departLane="" departPos="0.00" departSpeed="15.60" departDelay="2.00" arrival="89.00" arrivalLane="" arrivalPos="90.46" arrivalSpeed="31.37" duration="81.00" routeLength="1190.91" waitingTime="0.00" waitingCount="0" stopTime="0.00" timeLoss="4.82" rerouteNo="0" devices="tripinfo_8" vType="DEFAULT_VEHTYPE" speedFactor="1.05" vaporized=""/>
    <tripinfo id="10" depart="11.00" departLane="" departPos="0.00" departSpeed="15.58" departDelay="4.00" arrival="97.00" arrivalLane="" arrivalPos="90.46" arrivalSpeed="28.14" duration="86.00" routeLength="1190.91" waitingTime="0.00" waitingCount="0" stopTime="0.00" timeLoss="1.40" rerouteNo="0" devices="tripinfo_10" vType="DEFAULT_VEHTYPE" speedFactor="0.94" vaporized=""/>
    <tripinfo id="7" depart="7.00" departLane="" departPos="0.00" departSpeed="16.62" departDelay="4.00" arrival="99.00" arrivalLane="" arrivalPos="90.46" arrivalSpeed="24.93" duration="92.00" routeLength="1188.76" waitingTime="0.78" waitingCount="0" stopTime="0.00" timeLoss="0.78" rerouteNo="0" devices="tripinfo_7" vType="DEFAULT_VEHTYPE" speedFactor="0.83" vaporized=""/>
    <tripinfo id="9" depart="10.00" departLane="" departPos="0.00" departSpeed="16.60" departDelay="3.00" arrival="101.00" arrivalLane="" arrivalPos="90.46" arrivalSpeed="26.58" duration="91.00" routeLength="1188.76" waitingTime="0.00" waitingCount="0" stopTime="0.00" timeLoss="5.22" rerouteNo="0" devices="tripinfo_9" vType="DEFAULT_VEHTYPE" speedFactor="0.89" vaporized=""/>
    <tripinfo id="12" depart="15.00" departLane="" departPos="0.00" departSpeed="17.71" departDelay="5.00" arrival="102.00" arrivalLane="" arrivalPos="90.46" arrivalSpeed="32.72" duration="87.00" routeLength="1188.76" waitingTime="0.00" waitingCount="0" stopTime="0.00" timeLoss="17.61" rerouteNo="0" devices="tripinfo_12" vType="DEFAULT_VEHTYPE" speedFactor="1.09" vaporized=""/>
    <tripinfo id="14" depart="18.00" departLane="" departPos="0.00" departSpeed="17.68" departDelay="6.00" arrival="104.00" arrivalLane="" arrivalPos="90.46" arrivalSpeed="31.41" duration="86.00" routeLength="1188.76" waitingTime="0.00" waitingCount="0" stopTime="0.00" timeLoss="13.28" rerouteNo="0" devices="tripinfo_14" vType="DEFAULT_VEHTYPE" speedFactor="1.05" vaporized=""/>
    <tripinfo id="15" depart="20.00" departLane="" departPos="0.00" departSpeed="18.97" departDelay="7.00" arrival="105.00" arrivalLane="" arrivalPos="90.46" arrivalSpeed="31.96" duration="85.00" routeLength="1188.76" waitingTime="0.37" waitingCount="0" stopTime="0.00" timeLoss="17.53" rerouteNo="0" devices="tripinfo_15" vType="DEFAULT_VEHTYPE" speedFactor="1.12" vaporized=""/>
    <tripinfo id="11" depart="13.00" departLane="" departPos="0.00" departSpeed="16.58" departDelay="3.00" arrival="107.00" arrivalLane="" arrivalPos="90.46" arrivalSpeed="25.71" duration="94.00" routeLength="1190.91" waitingTime="1.14" waitingCount="0" stopTime="0.00" timeLoss="1.40" rerouteNo="0" devices="tripinfo_11" vType="DEFAULT_VEHTYPE" speedFactor="0.86" vaporized=""/>
    <tripinfo id="17" depart="23.00" departLane="" departPos="0.00" departSpeed="18.54" departDelay="8.00" arrival="109.00" arrivalLane="" arrivalPos="90.46" arrivalSpeed="25.70" duration="86.00" routeLength="1188.76" waitingTime="1.33" waitingCount="0" stopTime="0.00" timeLoss="3.74" rerouteNo="0" devices="tripinfo_17" vType="DEFAULT_VEHTYPE" speedFactor="0.93" vaporized=""/>
    <tripinfo id="13" depart="17.00" departLane="" departPos="0.00" departSpeed="19.00" departDelay="7.00" arrival="110.00" arrivalLane="" arrivalPos="90.46" arrivalSpeed="25.69" duration="93.00" routeLength="1190.91" waitingTime="1.33" waitingCount="0" stopTime="0.00" timeLoss="15.42" rerouteNo="0" devices="tripinfo_13" vType="DEFAULT_VEHTYPE" speedFactor="1.03" vaporized=""/>
    <tripinfo id="18" depart="24.00" departLane="" departPos="0.00" departSpeed="17.28" departDelay="8.00" arrival="111.00" arrivalLane="" arrivalPos="90.46" arrivalSpeed="25.68" duration="87.00" routeLength="1188.76" waitingTime="0.58" waitingCount="0" stopTime="0.00" timeLoss="1.01" rerouteNo="0" devices="tripinfo_18" vType="DEFAULT_VEHTYPE" speedFactor="0.88" vaporized=""/>
    <tripinfo id="16" depart="21.00" departLane="" departPos="0.00" departSpeed="17.66" departDelay="8.00" arrival="113.00" arrivalLane="" arrivalPos="90.46" arrivalSpeed="25.68" duration="92.00" routeLength="1190.91" waitingTime="0.88" waitingCount="0" stopTime="0.00" timeLoss="11.45" rerouteNo="0" devices="tripinfo_16" vType="DEFAULT_VEHTYPE" speedFactor="0.99" vaporized=""/>
    <tripinfo id="20" depart="28.00" departLane="" departPos="0.00" departSpeed="18.72" departDelay="11.00" arrival="114.00" arrivalLane="" arrivalPos="90.46" arrivalSpeed="25.67" duration="86.00" routeLength="1188.76" waitingTime="1.33" waitingCount="0" stopTime="0.00" timeLoss="5.08" rerouteNo="0" devices="tripinfo_20" vType="DEFAULT_VEHTYPE" speedFactor="0.94" vaporized=""/>
    <tripinfo id="19" depart="26.00" departLane="" departPos="0.00" departSpeed="18.51" departDelay="10.00" arrival="116.00" arrivalLane="" arrivalPos="90.46" arrivalSpeed="25.66" duration="90.00" routeLength="1190.91" waitingTime="0.88" waitingCount="0" stopTime="0.00" timeLoss="4.98" rerouteNo="0" devices="tripinfo_19" vType="DEFAULT_VEHTYPE" speedFactor="0.94" vaporized=""/>
    <tripinfo id="22" depart="31.00" departLane="" departPos="0.00" departSpeed="18.70" departDelay="13.00" arrival="117.00" arrivalLane="" arrivalPos="90.46" arrivalSpeed="25.66" duration="86.00" routeLength="1188.76" waitingTime="1.33" waitingCount="0" stopTime="0.00" timeLoss="11.33" rerouteNo="0" devices="tripinfo_22" vType="DEFAULT_VEHTYPE" speedFactor="1.02" vaporized=""/>
    <tripinfo id="21" depart="29.00" departLane="" departPos="0.00" departSpeed="17.44" departDelay="11.00" arrival="118.00" arrivalLane="" arrivalPos="90.46" arrivalSpeed="25.65" duration="89.00" routeLength="1190.91" waitingTime="1.33" waitingCount="0" stopTime="0.00" timeLoss="20.49" rerouteNo="0" devices="tripinfo_21" vType="DEFAULT_VEHTYPE" speedFactor="1.16" vaporized=""/>
    <tripinfo id="23" depart="33.00" departLane="" departPos="0.00" departSpeed="20.15" departDelay="15.00" arrival="120.00" arrivalLane="" arrivalPos="90.46" arrivalSpeed="25.64" duration="87.00" routeLength="1188.76" waitingTime="1.70" waitingCount="0" stopTime="0.00" timeLoss="11.51" rerouteNo="0" devices="tripinfo_23" vType="DEFAULT_VEHTYPE" speedFactor="1.01" vaporized=""/>
    <tripinfo id="24" depart="34.00" departLane="" departPos="0.00" departSpeed="18.67" departDelay="13.00" arrival="121.00" arrivalLane="" arrivalPos="90.46" arrivalSpeed="26.01" duration="87.00" routeLength="1188.76" waitingTime="0.37" waitingCount="0" stopTime="0.00" timeLoss="9.19" rerouteNo="0" devices="tripinfo_24" vType="DEFAULT_VEHTYPE" speedFactor="0.97" vaporized=""/>
    <tripinfo id="29" depart="42.00" departLane="" departPos="0.00" departSpeed="17.43" departDelay="17.00" arrival="123.00" arrivalLane="" arrivalPos="90.46" arrivalSpeed="28.46" duration="81.00" routeLength="1188.76" waitingTime="0.00" waitingCount="0" stopTime="0.00" timeLoss="0.60" rerouteNo="0" devices="tripinfo_29" vType="DEFAULT_VEHTYPE" speedFactor="0.95" vaporized=""/>
    <tripinfo id="25" depart="36.00" departLane="" departPos="0.00" departSpeed="17.79" departDelay="14.00" arrival="126.00" arrivalLane="" arrivalPos="90.46" arrivalSpeed="26.68" duration="90.00" routeLength="1190.91" waitingTime="0.00" waitingCount="0" stopTime="0.00" timeLoss="0.10" rerouteNo="0" devices="tripinfo_25" vType="DEFAULT_VEHTYPE" speedFactor="0.89" vaporized=""/>
    <tripinfo id="31" depart="45.00" departLane="" departPos="0.00" departSpeed="17.40" departDelay="18.00" arrival="127.00" arrivalLane="" arrivalPos="90.46" arrivalSpeed="27.94" duration="82.00" routeLength="1188.76" waitingTime="0.00" waitingCount="0" stopTime="0.00" timeLoss="0.49" rerouteNo="0" devices="tripinfo_31" vType="DEFAULT_VEHTYPE" speedFactor="0.93" vaporized=""/>
    <tripinfo id="32" depart="47.00" departLane="" departPos="0.00" departSpeed="18.65" departDelay="20.00" arrival="128.00" arrivalLane="" arrivalPos="90.46" arrivalSpeed="28.38" duration="81.00" routeLength="1188.76" waitingTime="0.37" waitingCount="0" stopTime="0.00" timeLoss="16.88" rerouteNo="0" devices="tripinfo_32" vType="DEFAULT_VEHTYPE" speedFactor="1.18" vaporized=""/>
    <tripinfo id="33" depart="48.00" departLane="" departPos="0.00" departSpeed="17.38" departDelay="19.00" arrival="130.00" arrivalLane="" arrivalPos="90.46" arrivalSpeed="28.83" duration="82.00" routeLength="1188.76" waitingTime="0.37" waitingCount="0" stopTime="0.00" timeLoss="15.92" rerouteNo="0" devices="tripinfo_33" vType="DEFAULT_VEHTYPE" speedFactor="1.15" vaporized=""/>
    <tripinfo id="35" depart="51.00" departLane="" departPos="0.00" departSpeed="17.36" departDelay="22.00" arrival="131.00" arrivalLane="" arrivalPos="90.46" arrivalSpeed="29.29" duration="80.00" routeLength="1188.76" waitingTime="0.00" waitingCount="0" stopTime="0.00" timeLoss="15.27" rerouteNo="0" devices="tripinfo_35" vType="DEFAULT_VEHTYPE" speedFactor="1.17" vaporized=""/>
    <tripinfo id="37" depart="55.00" departLane="" departPos="0.00" departSpeed="20.03" departDelay="26.00" arrival="133.00" arrivalLane="" arrivalPos="90.46" arrivalSpeed="29.78" duration="78.00" routeLength="1188.76" waitingTime="0.00" waitingCount="0" stopTime="0.00" timeLoss="3.03" rerouteNo="0" devices="tripinfo_37" vType="DEFAULT_VEHTYPE" speedFactor="1.02" vaporized=""/>
    <tripinfo id="26" depart="37.00" departLane="" departPos="0.00" departSpeed="16.51" departDelay="15.00" arrival="135.00" arrivalLane="" arrivalPos="90.46" arrivalSpeed="24.77" duration="98.00" routeLength="1190.91" waitingTime="1.10" waitingCount="0" stopTime="0.00" timeLoss="1.15" rerouteNo="0" devices="tripinfo_26" vType="DEFAULT_VEHTYPE" speedFactor="0.83" vaporized=""/>
    <tripinfo id="39" depart="58.00" departLane="" departPos="0.00" departSpeed="18.08" departDelay="27.00" arrival="136.00" arrivalLane="" arrivalPos="90.46" arrivalSpeed="24.76" duration="78.00" routeLength="1188.76" waitingTime="1.33" waitingCount="0" stopTime="0.00" timeLoss="13.45" rerouteNo="0" devices="tripinfo_39" vType="DEFAULT_VEHTYPE" speedFactor="1.18" vaporized=""/>
    <tripinfo id="27" depart="39.00" departLane="" departPos="0.00" departSpeed="17.45" departDelay="16.00" arrival="137.00" arrivalLane="" arrivalPos="90.46" arrivalSpeed="24.76" duration="98.00" routeLength="1190.91" waitingTime="1.33" waitingCount="0" stopTime="0.00" timeLoss="7.07" rerouteNo="0" devices="tripinfo_27" vType="DEFAULT_VEHTYPE" speedFactor="0.87" vaporized=""/>
    <tripinfo id="40" depart="60.00" departLane="" departPos="0.00" departSpeed="19.43" departDelay="27.00" arrival="139.00" arrivalLane="" arrivalPos="90.46" arrivalSpeed="24.75" duration="79.00" routeLength="1188.76" waitingTime="1.70" waitingCount="0" stopTime="0.00" timeLoss="9.72" rerouteNo="0" devices="tripinfo_40" vType="DEFAULT_VEHTYPE" speedFactor="1.10" vaporized=""/>
    <tripinfo id="28" depart="40.00" departLane="" departPos="0.00" departSpeed="16.33" departDelay="16.00" arrival="140.00" arrivalLane="" arrivalPos="90.46" arrivalSpeed="24.74" duration="100.00" routeLength="1190.91" waitingTime="1.33" waitingCount="0" stopTime="0.00" timeLoss="13.23" rerouteNo="0" devices="tripinfo_28" vType="DEFAULT_VEHTYPE" speedFactor="0.92" vaporized=""/>
    <tripinfo id="30" depart="44.00" departLane="" departPos="0.00" departSpeed="18.68" departDelay="19.00" arrival="141.00" arrivalLane="" arrivalPos="90.46" arrivalSpeed="28.66" duration="97.00" routeLength="1190.91" waitingTime="0.45" waitingCount="0" stopTime="0.00" timeLoss="26.99" rerouteNo="0" devices="tripinfo_30" vType="DEFAULT_VEHTYPE" speedFactor="1.13" vaporized=""/>
    <tripinfo id="34" depart="50.00" departLane="" departPos="0.00" departSpeed="18.63" departDelay="21.00" arrival="143.00" arrivalLane="" arrivalPos="90.46" arrivalSpeed="30.15" duration="93.00" routeLength="1190.91" waitingTime="0.00" waitingCount="0" stopTime="0.00" timeLoss="13.90" rerouteNo="0" devices="tripinfo_34" vType="DEFAULT_VEHTYPE" speedFactor="1.01" vaporized=""/>
    <tripinfo id="36" depart="53.00" departLane="" departPos="0.00" departSpeed="18.60" departDelay="24.00" arrival="145.00" arrivalLane="" arrivalPos="90.46" arrivalSpeed="29.84" duration="92.00" routeLength="1190.91" waitingTime="0.00" waitingCount="0" stopTime="0.00" timeLoss="11.99" rerouteNo="0" devices="tripinfo_36" vType="DEFAULT_VEHTYPE" speedFactor="0.99" vaporized=""/>
    <tripinfo id="41" depart="61.00" departLane="" departPos="0.00" departSpeed="18.01" departDelay="27.00" arrival="147.00" arrivalLane="" arrivalPos="90.46" arrivalSpeed="27.02" duration="86.00" routeLength="1188.76" waitingTime="1.04" waitingCount="0" stopTime="0.00" timeLoss="1.46" rerouteNo="0" devices="tripinfo_41" vType="DEFAULT_VEHTYPE" speedFactor="0.90" vaporized=""/>
    <tripinfo id="38" depart="57.00" departLane="" departPos="0.00" departSpeed="19.46" departDelay="26.00" arrival="148.00" arrivalLane="" arrivalPos="90.46" arrivalSpeed="27.01" duration="91.00" routeLength="1190.91" waitingTime="0.88" waitingCount="0" stopTime="0.00" timeLoss="9.30" rerouteNo="0" devices="tripinfo_38" vType="DEFAULT_VEHTYPE" speedFactor="0.97" vaporized=""/>
    <tripinfo id="42" depart="63.00" departLane="" departPos="0.00" departSpeed="19.35" departDelay="28.00" arrival="150.00" arrivalLane="" arrivalPos="90.46" arrivalSpeed="27.00" duration="87.00" routeLength="1188.76" waitingTime="1.70" waitingCount="0" stopTime="0.00" timeLoss="12.79" rerouteNo="0" devices="tripinfo_42" vType="DEFAULT_VEHTYPE" speedFactor="1.03" vaporized=""/>
    <tripinfo id="43" depart="64.00" departLane="" departPos="0.00" departSpeed="17.99" departDelay="29.00" arrival="151.00" arrivalLane="" arrivalPos="90.46" arrivalSpeed="26.99" duration="87.00" routeLength="1190.91" waitingTime="0.88" waitingCount="0" stopTime="0.00" timeLoss="3.68" rerouteNo="0" devices="tripinfo_43" vType="DEFAULT_VEHTYPE" speedFactor="0.96" vaporized=""/>
    <tripinfo id="44" depart="66.00" departLane="" departPos="0.00" departSpeed="19.32" departDelay="31.00" arrival="152.00" arrivalLane="" arrivalPos="90.46" arrivalSpeed="26.99" duration="86.00" routeLength="1188.76" waitingTime="0.73" waitingCount="0" stopTime="0.00" timeLoss="16.67" rerouteNo="0" devices="tripinfo_44" vType="DEFAULT_VEHTYPE" speedFactor="1.09" vaporized=""/>
    <tripinfo id="47" depart="71.00" departLane="" departPos="0.00" departSpeed="20.72" departDelay="32.00" arrival="154.00" arrivalLane="" arrivalPos="90.46" arrivalSpeed="26.98" duration="83.00" routeLength="1190.91" waitingTime="0.88" waitingCount="0" stopTime="0.00" timeLoss="9.41" rerouteNo="0" devices="tripinfo_47" vType="DEFAULT_VEHTYPE" speedFactor="1.09" vaporized=""/>
    <tripinfo id="45" depart="68.00" departLane="" departPos="0.00" departSpeed="20.76" departDelay="32.00" arrival="155.00" arrivalLane="" arrivalPos="90.46" arrivalSpeed="26.97" duration="87.00" routeLength="1188.76" waitingTime="1.70" waitingCount="0" stopTime="0.00" timeLoss="13.83" rerouteNo="0" devices="tripinfo_45" vType="DEFAULT_VEHTYPE" speedFactor="1.04" vaporized=""/>
    <tripinfo id="46" depart="69.00" departLane="" departPos="0.00" departSpeed="19.19" departDelay="32.00" arrival="156.00" arrivalLane="" arrivalPos="90.46" arrivalSpeed="27.38" duration="87.00" routeLength="1188.76" waitingTime="0.37" waitingCount="0" stopTime="0.00" timeLoss="14.60" rerouteNo="0" devices="tripinfo_46" vType="DEFAULT_VEHTYPE" speedFactor="1.04" vaporized=""/>
    <tripinfo id="48" depart="73.00" departLane="" departPos="0.00" departSpeed="19.95" departDelay="33.00" arrival="158.00" arrivalLane="" arrivalPos="90.46" arrivalSpeed="27.80" duration="85.00" routeLength="1188.76" waitingTime="0.00" waitingCount="0" stopTime="0.00" timeLoss="8.64" rerouteNo="0" devices="tripinfo_48" vType="DEFAULT_VEHTYPE" speedFactor="1.00" vaporized=""/>
    <tripinfo id="50" depart="76.00" departLane="" departPos="0.00" departSpeed="17.54" departDelay="36.00" arrival="163.00" arrivalLane="" arrivalPos="90.46" arrivalSpeed="26.30" duration="87.00" routeLength="1188.76" waitingTime="0.00" waitingCount="0" stopTime="0.00" timeLoss="0.27" rerouteNo="0" devices="tripinfo_50" vType="DEFAULT_VEHTYPE" speedFactor="0.88" vaporized=""/>
    <tripinfo id="49" depart="74.00" departLane="" departPos="0.00" departSpeed="18.01" departDelay="34.00" arrival="164.00" arrivalLane="" arrivalPos="90.46" arrivalSpeed="26.30" duration="90.00" routeLength="1190.91" waitingTime="0.75" waitingCount="0" stopTime="0.00" timeLoss="1.80" rerouteNo="0" devices="tripinfo_49" vType="DEFAULT_VEHTYPE" speedFactor="0.90" vaporized=""/>
    <tripinfo id="57" depart="88.00" departLane="" departPos="0.00" departSpeed="18.25" departDelay="44.00" arrival="166.00" arrivalLane="" arrivalPos="90.46" arrivalSpeed="26.29" duration="78.00" routeLength="1188.76" waitingTime="0.32" waitingCount="0" stopTime="0.00" timeLoss="1.33" rerouteNo="0" devices="tripinfo_57" vType="DEFAULT_VEHTYPE" speedFactor="1.00" vaporized=""/>
    <tripinfo id="51" depart="78.00" departLane="" departPos="0.00" departSpeed="17.01" departDelay="37.00" arrival="172.00" arrivalLane="" arrivalPos="90.46" arrivalSpeed="25.51" duration="94.00" routeLength="1190.91" waitingTime="0.00" waitingCount="0" stopTime="0.00" timeLoss="0.00" rerouteNo="0" devices="tripinfo_51" vType="DEFAULT_VEHTYPE" speedFactor="0.85" vaporized=""/>
    <tripinfo id="52" depart="80.00" departLane="" departPos="0.00" departSpeed="17.10" departDelay="39.00" arrival="174.00" arrivalLane="" arrivalPos="90.46" arrivalSpeed="25.65" duration="94.00" routeLength="1190.91" waitingTime="0.03" waitingCount="0" stopTime="0.00" timeLoss="0.35" rerouteNo="0" devices="tripinfo_52" vType="DEFAULT_VEHTYPE" speedFactor="0.85" vaporized=""/>
    <tripinfo id="58" depart="90.00" departLane="" departPos="0.00" departSpeed="17.98" departDelay="41.00" arrival="175.00" arrivalLane="" arrivalPos="90.46" arrivalSpeed="25.64" duration="85.00" routeLength="1188.76" waitingTime="0.21" waitingCount="0" stopTime="0.00" timeLoss="0.38" rerouteNo="0" devices="tripinfo_58" vType="DEFAULT_VEHTYPE" speedFactor="0.90" vaporized=""/>
    <tripinfo id="53" depart="81.00" departLane="" departPos="0.00" departSpeed="16.02" departDelay="38.00" arrival="176.00" arrivalLane="" arrivalPos="90.46" arrivalSpeed="25.63" duration="95.00" routeLength="1190.91" waitingTime="1.33" waitingCount="0" stopTime="0.00" timeLoss="27.00" rerouteNo="0" devices="tripinfo_53" vType="DEFAULT_VEHTYPE" speedFactor="1.17" vaporized=""/>
    <tripinfo id="60" depart="93.00" departLane="" departPos="0.00" departSpeed="17.95" departDelay="43.00" arrival="178.00" arrivalLane="" arrivalPos="90.46" arrivalSpeed="25.63" duration="85.00" routeLength="1188.76" waitingTime="1.33" waitingCount="0" stopTime="0.00" timeLoss="10.38" rerouteNo="0" devices="tripinfo_60" vType="DEFAULT_VEHTYPE" speedFactor="1.02" vaporized=""/>
    <tripinfo id="54" depart="83.00" departLane="" departPos="0.00" departSpeed="17.07" departDelay="40.00" arrival="179.00" arrivalLane="" arrivalPos="90.46" arrivalSpeed="25.62" duration="96.00" routeLength="1190.91" waitingTime="1.33" waitingCount="0" stopTime="0.00" timeLoss="17.62" rerouteNo="0" devices="tripinfo_54" vType="DEFAULT_VEHTYPE" speedFactor="1.02" vaporized=""/>
    <tripinfo id="62" depart="96.00" departLane="" departPos="0.00" departSpeed="17.93" departDelay="45.00" arrival="180.00" arrivalLane="" arrivalPos="90.46" arrivalSpeed="25.61" duration="84.00" routeLength="1188.76" waitingTime="1.33" waitingCount="0" stopTime="0.00" timeLoss="14.15" rerouteNo="0" devices="tripinfo_62" vType="DEFAULT_VEHTYPE" speedFactor="1.08" vaporized=""/>
    <tripinfo id="55" depart="84.00" departLane="" departPos="0.00" departSpeed="16.00" departDelay="41.00" arrival="182.00" arrivalLane="" arrivalPos="90.46" arrivalSpeed="25.60" duration="98.00" routeLength="1190.91" waitingTime="1.33" waitingCount="0" stopTime="0.00" timeLoss="25.00" rerouteNo="0" devices="tripinfo_55" vType="DEFAULT_VEHTYPE" speedFactor="1.10" vaporized=""/>
    <tripinfo id="64" depart="99.00" departLane="" departPos="0.00" departSpeed="17.90" departDelay="45.00" arrival="183.00" arrivalLane="" arrivalPos="90.46" arrivalSpeed="25.60" duration="84.00" routeLength="1188.76" waitingTime="1.33" waitingCount="0" stopTime="0.00" timeLoss="9.33" rerouteNo="0" devices="tripinfo_64" vType="DEFAULT_VEHTYPE" speedFactor="1.02" vaporized=""/>
    <tripinfo id="56" depart="86.00" departLane="" departPos="0.00" departSpeed="17.05" departDelay="42.00" arrival="185.00" arrivalLane="" arrivalPos="90.46" arrivalSpeed="25.59" duration="99.00" routeLength="1190.91" waitingTime="1.33" waitingCount="0" stopTime="0.00" timeLoss="19.09" rerouteNo="0" devices="tripinfo_56" vType="DEFAULT_VEHTYPE" speedFactor="1.00" vaporized=""/>
    <tripinfo id="65" depart="101.00" departLane="" departPos="0.00" departSpeed="19.23" departDelay="47.00" arrival="186.00" arrivalLane="" arrivalPos="90.46" arrivalSpeed="25.58" duration="85.00" routeLength="1188.76" waitingTime="1.70" waitingCount="0" stopTime="0.00" timeLoss="7.92" rerouteNo="0" devices="tripinfo_65" vType="DEFAULT_VEHTYPE" speedFactor="0.99" vaporized=""/>
    <tripinfo id="59" depart="91.00" departLane="" departPos="0.00" departSpeed="16.79" departDelay="41.00" arrival="187.00" arrivalLane="" arrivalPos="90.46" arrivalSpeed="25.58" duration="96.00" routeLength="1190.91" waitingTime="1.33" waitingCount="0" stopTime="0.00" timeLoss="26.47" rerouteNo="0" devices="tripinfo_59" vType="DEFAULT_VEHTYPE" speedFactor="1.14" vaporized=""/>
    <tripinfo id="66" depart="102.00" departLane="" departPos="0.00" departSpeed="17.88" departDelay="48.00" arrival="189.00" arrivalLane="" arrivalPos="90.46" arrivalSpeed="25.57" duration="87.00" routeLength="1188.76" waitingTime="1.70" waitingCount="0" stopTime="0.00" timeLoss="5.65" rerouteNo="0" devices="tripinfo_66" vType="DEFAULT_VEHTYPE" speedFactor="0.94" vaporized=""/>
    <tripinfo id="61" depart="94.00" departLane="" departPos="0.00" departSpeed="16.77" departDelay="43.00" arrival="190.00" arrivalLane="" arrivalPos="90.46" arrivalSpeed="25.56" duration="96.00" routeLength="1190.91" waitingTime="0.88" waitingCount="0" stopTime="0.00" timeLoss="13.86" rerouteNo="0" devices="tripinfo_61" vType="DEFAULT_VEHTYPE" speedFactor="0.97" vaporized=""/>
    <tripinfo id="69" depart="107.00" departLane="" departPos="0.00" departSpeed="17.62" departDelay="50.00" arrival="191.00" arrivalLane="" arrivalPos="90.46" arrivalSpeed="25.55" duration="84.00" routeLength="1188.76" waitingTime="0.72" waitingCount="0" stopTime="0.00" timeLoss="1.39" rerouteNo="0" devices="tripinfo_69" vType="DEFAULT_VEHTYPE" speedFactor="0.91" vaporized=""/>
    <tripinfo id="63" depart="98.00" departLane="" departPos="0.00" departSpeed="19.26" departDelay="46.00" arrival="193.00" arrivalLane="" arrivalPos="90.46" arrivalSpeed="25.55" duration="95.00" routeLength="1190.91" waitingTime="1.33" waitingCount="0" stopTime="0.00" timeLoss="23.56" rerouteNo="0" devices="tripinfo_63" vType="DEFAULT_VEHTYPE" speedFactor="1.12" vaporized=""/>
    <tripinfo id="70" depart="109.00" departLane="" departPos="0.00" departSpeed="18.90" departDelay="49.00" arrival="194.00" arrivalLane="" arrivalPos="90.46" arrivalSpeed="25.54" duration="85.00" routeLength="1188.76" waitingTime="1.70" waitingCount="0" stopTime="0.00" timeLoss="12.10" rerouteNo="0" devices="tripinfo_70" vType="DEFAULT_VEHTYPE" speedFactor="1.04" vaporized=""/>
    <tripinfo id="67" depart="104.00" departLane="" departPos="0.00" departSpeed="17.65" departDelay="50.00" arrival="196.00" arrivalLane="" arrivalPos="90.46" arrivalSpeed="25.53" duration="92.00" routeLength="1190.91" waitingTime="0.88" waitingCount="0" stopTime="0.00" timeLoss="1.31" rerouteNo="0" devices="tripinfo_67" vType="DEFAULT_VEHTYPE" speedFactor="0.88" vaporized=""/>
    <tripinfo id="72" depart="112.00" departLane="" departPos="0.00" departSpeed="18.88" departDelay="47.00" arrival="197.00" arrivalLane="" arrivalPos="90.46" arrivalSpeed="25.52" duration="85.00" routeLength="1188.76" waitingTime="1.33" waitingCount="0" stopTime="0.00" timeLoss="10.65" rerouteNo="0" devices="tripinfo_72" vType="DEFAULT_VEHTYPE" speedFactor="1.02" vaporized=""/>
    <tripinfo id="68" depart="105.00" departLane="" departPos="0.00" departSpeed="16.50" departDelay="48.00" arrival="198.00" arrivalLane="" arrivalPos="90.46" arrivalSpeed="25.52" duration="93.00" routeLength="1190.91" waitingTime="1.33" waitingCount="0" stopTime="0.00" timeLoss="5.50" rerouteNo="0" devices="tripinfo_68" vType="DEFAULT_VEHTYPE" speedFactor="0.91" vaporized=""/>
    <tripinfo id="73" depart="113.00" departLane="" departPos="0.00" departSpeed="17.57" departDelay="46.00" arrival="200.00" arrivalLane="" arrivalPos="90.46" arrivalSpeed="25.51" duration="87.00" routeLength="1188.76" waitingTime="1.10" waitingCount="0" stopTime="0.00" timeLoss="8.62" rerouteNo="0" devices="tripinfo_73" vType="DEFAULT_VEHTYPE" speedFactor="0.97" vaporized=""/>
    <tripinfo id="71" depart="110.00" departLane="" departPos="0.00" departSpeed="17.60" departDelay="47.00" arrival="201.00" arrivalLane="" arrivalPos="90.46" arrivalSpeed="25.50" duration="91.00" routeLength="1190.91" waitingTime="1.07" waitingCount="0" stopTime="0.00" timeLoss="13.11" rerouteNo="0" devices="tripinfo_71" vType="DEFAULT_VEHTYPE" speedFactor="1.02" vaporized=""/>
    <tripinfo id="74" depart="115.00" departLane="" departPos="0.00" departSpeed="18.80" departDelay="43.00" arrival="202.00" arrivalLane="" arrivalPos="90.46" arrivalSpeed="25.50" duration="87.00" routeLength="1188.76" waitingTime="1.10" waitingCount="0" stopTime="0.00" timeLoss="6.66" rerouteNo="0" devices="tripinfo_74" vType="DEFAULT_VEHTYPE" speedFactor="0.94" vaporized=""/>
    <tripinfo id="75" depart="117.00" departLane="" departPos="0.00" departSpeed="20.27" departDelay="45.00" arrival="204.00" arrivalLane="" arrivalPos="90.46" arrivalSpeed="25.49" duration="87.00" routeLength="1190.91" waitingTime="0.88" waitingCount="0" stopTime="0.00" timeLoss="11.33" rerouteNo="0" devices="tripinfo_75" vType="DEFAULT_VEHTYPE" speedFactor="1.06" vaporized=""/>