<?xml version="1.0" encoding="UTF-8"?>

<!-- generated on 2023-04-30 00:02:25 by Eclipse SUMO sumo Version 1.16.0
<configuration xmlns:xsi="http://www.w3.org/2001/XMLSchema-instance" xsi:noNamespaceSchemaLocation="http://sumo.dlr.de/xsd/sumoConfiguration.xsd">

    <input>
        <net-file value="C:\Users\Local_Man\Desktop\Stolen%20Music\school%20stuff%20for%20college\Semester%2015%20(UH%20Graduate%20School)\COSC%206364%20Nikolaos\SUMO_Project\COSC6364_Project\configurations\maps\Braess_Homebrew_fixed1.net.xml"/>
        <route-files value="./configurations/Rounds/Braess_Homebrew_fixed1.net.xml-test-3/Macroscopic_DUE/016/Trips_File_016.rou.xml"/>
    </input>

    <output>
        <summary-output value="./configurations/Rounds/Braess_Homebrew_fixed1.net.xml-test-3/Macroscopic_DUE/016/summary.xml"/>
        <tripinfo-output value="./configurations/Rounds/Braess_Homebrew_fixed1.net.xml-test-3/Macroscopic_DUE/016/trips.trips.xml"/>
        <statistic-output value="./configurations/Rounds/Braess_Homebrew_fixed1.net.xml-test-3/Macroscopic_DUE/016/stats_output.xml"/>
    </output>

    <time>
        <begin value="0"/>
    </time>

    <report>
        <log value="./configurations/Rounds/Braess_Homebrew_fixed1.net.xml-test-3/Macroscopic_DUE/016/log.sumo.log"/>
        <no-step-log value="true"/>
    </report>

    <gui_only>
        <quit-on-end value="true"/>
    </gui_only>

</configuration>
-->

<tripinfos xmlns:xsi="http://www.w3.org/2001/XMLSchema-instance" xsi:noNamespaceSchemaLocation="http://sumo.dlr.de/xsd/tripinfo_file.xsd">
    <tripinfo id="3" depart="2.00" departLane="E0_0" departPos="5.10" departSpeed="16.96" departDelay="1.00" arrival="89.00" arrivalLane="E3_0" arrivalPos="90.46" arrivalSpeed="31.61" duration="87.00" routeLength="1314.99" waitingTime="0.00" waitingCount="0" stopTime="0.00" timeLoss="10.76" rerouteNo="0" devices="tripinfo_3" vType="DEFAULT_VEHTYPE" speedFactor="1.08" vaporized=""/>
    <tripinfo id="5" depart="4.00" departLane="E0_0" departPos="5.10" departSpeed="10.75" departDelay="1.00" arrival="96.00" arrivalLane="E3_0" arrivalPos="90.46" arrivalSpeed="30.77" duration="92.00" routeLength="1314.99" waitingTime="0.00" waitingCount="0" stopTime="0.00" timeLoss="13.62" rerouteNo="0" devices="tripinfo_5" vType="DEFAULT_VEHTYPE" speedFactor="1.05" vaporized=""/>
    <tripinfo id="6" depart="5.00" departLane="E0_0" departPos="5.10" departSpeed="7.88" departDelay="1.00" arrival="98.00" arrivalLane="E3_0" arrivalPos="90.46" arrivalSpeed="32.07" duration="93.00" routeLength="1314.99" waitingTime="0.00" waitingCount="0" stopTime="0.00" timeLoss="16.43" rerouteNo="0" devices="tripinfo_6" vType="DEFAULT_VEHTYPE" speedFactor="1.08" vaporized=""/>
    <tripinfo id="8" depart="9.00" departLane="E0_0" departPos="5.10" departSpeed="6.17" departDelay="4.00" arrival="104.00" arrivalLane="E3_0" arrivalPos="90.46" arrivalSpeed="29.92" duration="95.00" routeLength="1314.99" waitingTime="0.00" waitingCount="0" stopTime="0.00" timeLoss="14.62" rerouteNo="0" devices="tripinfo_8" vType="DEFAULT_VEHTYPE" speedFactor="1.02" vaporized=""/>
    <tripinfo id="11" depart="15.00" departLane="E0_0" departPos="5.10" departSpeed="5.79" departDelay="8.00" arrival="106.00" arrivalLane="E3_0" arrivalPos="90.46" arrivalSpeed="32.55" duration="91.00" routeLength="1314.99" waitingTime="0.00" waitingCount="0" stopTime="0.00" timeLoss="17.45" rerouteNo="0" devices="tripinfo_11" vType="DEFAULT_VEHTYPE" speedFactor="1.12" vaporized=""/>
    <tripinfo id="2" depart="1.00" departLane="E0_0" departPos="5.10" departSpeed="19.50" departDelay="0.00" arrival="116.00" arrivalLane="E3_0" arrivalPos="90.46" arrivalSpeed="23.39" duration="115.00" routeLength="1317.38" waitingTime="12.00" waitingCount="1" stopTime="0.00" timeLoss="27.04" rerouteNo="0" devices="tripinfo_2" vType="DEFAULT_VEHTYPE" speedFactor="0.98" vaporized=""/>
    <tripinfo id="4" depart="3.00" departLane="E0_0" departPos="5.10" departSpeed="14.44" departDelay="1.00" arrival="118.00" arrivalLane="E3_0" arrivalPos="90.46" arrivalSpeed="24.25" duration="115.00" routeLength="1317.38" waitingTime="9.00" waitingCount="1" stopTime="0.00" timeLoss="43.35" rerouteNo="0" devices="tripinfo_4" vType="DEFAULT_VEHTYPE" speedFactor="1.20" vaporized=""/>
    <tripinfo id="7" depart="6.00" departLane="E0_0" departPos="5.10" departSpeed="3.06" departDelay="1.00" arrival="119.00" arrivalLane="E3_0" arrivalPos="90.46" arrivalSpeed="24.88" duration="113.00" routeLength="1317.38" waitingTime="0.00" waitingCount="0" stopTime="0.00" timeLoss="21.90" rerouteNo="0" devices="tripinfo_7" vType="DEFAULT_VEHTYPE" speedFactor="0.94" vaporized=""/>
    <tripinfo id="12" depart="17.00" departLane="E0_0" departPos="5.10" departSpeed="5.97" departDelay="9.00" arrival="126.00" arrivalLane="E3_0" arrivalPos="90.46" arrivalSpeed="27.00" duration="109.00" routeLength="1314.99" waitingTime="0.00" waitingCount="0" stopTime="0.00" timeLoss="17.18" rerouteNo="0" devices="tripinfo_12" vType="DEFAULT_VEHTYPE" speedFactor="0.90" vaporized=""/>
    <tripinfo id="14" depart="21.00" departLane="E0_0" departPos="5.10" departSpeed="7.84" departDelay="10.00" arrival="127.00" arrivalLane="E3_0" arrivalPos="90.46" arrivalSpeed="29.02" duration="106.00" routeLength="1314.99" waitingTime="0.00" waitingCount="0" stopTime="0.00" timeLoss="27.12" rerouteNo="0" devices="tripinfo_14" vType="DEFAULT_VEHTYPE" speedFactor="1.04" vaporized=""/>
    <tripinfo id="18" depart="28.00" departLane="E0_0" departPos="5.10" departSpeed="4.51" departDelay="14.00" arrival="128.00" arrivalLane="E3_0" arrivalPos="90.46" arrivalSpeed="28.84" duration="100.00" routeLength="1314.99" waitingTime="0.00" waitingCount="0" stopTime="0.00" timeLoss="20.57" rerouteNo="0" devices="tripinfo_18" vType="DEFAULT_VEHTYPE" speedFactor="1.03" vaporized=""/>
    <tripinfo id="20" depart="33.00" departLane="E0_0" departPos="5.10" departSpeed="6.25" departDelay="18.00" arrival="131.00" arrivalLane="E3_0" arrivalPos="90.46" arrivalSpeed="29.99" duration="98.00" routeLength="1314.99" waitingTime="0.00" waitingCount="0" stopTime="0.00" timeLoss="16.32" rerouteNo="0" devices="tripinfo_20" vType="DEFAULT_VEHTYPE" speedFactor="1.01" vaporized=""/>
    <tripinfo id="9" depart="11.00" departLane="E0_0" departPos="5.10" departSpeed="6.19" departDelay="5.00" arrival="141.00" arrivalLane="E3_0" arrivalPos="90.46" arrivalSpeed="24.38" duration="130.00" routeLength="1317.38" waitingTime="15.00" waitingCount="1" stopTime="0.00" timeLoss="51.23" rerouteNo="0" devices="tripinfo_9" vType="DEFAULT_VEHTYPE" speedFactor="1.09" vaporized=""/>
    <tripinfo id="21" depart="35.00" departLane="E0_0" departPos="5.10" departSpeed="5.90" departDelay="18.00" arrival="147.00" arrivalLane="E3_0" arrivalPos="90.46" arrivalSpeed="25.85" duration="112.00" routeLength="1314.99" waitingTime="0.00" waitingCount="0" stopTime="0.00" timeLoss="18.33" rerouteNo="0" devices="tripinfo_21" vType="DEFAULT_VEHTYPE" speedFactor="0.87" vaporized=""/>
    <tripinfo id="22" depart="37.00" departLane="E0_0" departPos="5.10" departSpeed="7.17" departDelay="19.00" arrival="149.00" arrivalLane="E3_0" arrivalPos="90.46" arrivalSpeed="29.65" duration="112.00" routeLength="1314.99" waitingTime="0.00" waitingCount="0" stopTime="0.00" timeLoss="32.19" rerouteNo="0" devices="tripinfo_22" vType="DEFAULT_VEHTYPE" speedFactor="1.03" vaporized=""/>
    <tripinfo id="23" depart="39.00" departLane="E0_0" departPos="5.10" departSpeed="6.94" departDelay="21.00" arrival="150.00" arrivalLane="E3_0" arrivalPos="90.46" arrivalSpeed="29.17" duration="111.00" routeLength="1314.99" waitingTime="0.00" waitingCount="0" stopTime="0.00" timeLoss="38.62" rerouteNo="0" devices="tripinfo_23" vType="DEFAULT_VEHTYPE" speedFactor="1.13" vaporized=""/>
    <tripinfo id="24" depart="41.00" departLane="E0_0" departPos="5.10" departSpeed="7.52" departDelay="22.00" arrival="154.00" arrivalLane="E3_0" arrivalPos="90.46" arrivalSpeed="25.98" duration="113.00" routeLength="1314.99" waitingTime="0.00" waitingCount="0" stopTime="0.00" timeLoss="20.74" rerouteNo="0" devices="tripinfo_24" vType="DEFAULT_VEHTYPE" speedFactor="0.89" vaporized=""/>
    <tripinfo id="25" depart="43.00" departLane="E0_0" departPos="5.10" departSpeed="5.74" departDelay="24.00" arrival="155.00" arrivalLane="E3_0" arrivalPos="90.46" arrivalSpeed="28.59" duration="112.00" routeLength="1314.99" waitingTime="0.00" waitingCount="0" stopTime="0.00" timeLoss="40.80" rerouteNo="0" devices="tripinfo_25" vType="DEFAULT_VEHTYPE" speedFactor="1.15" vaporized=""/>
    <tripinfo id="26" depart="45.00" departLane="E0_0" departPos="5.10" departSpeed="3.28" departDelay="26.00" arrival="157.00" arrivalLane="E3_0" arrivalPos="90.46" arrivalSpeed="29.87" duration="112.00" routeLength="1314.99" waitingTime="0.00" waitingCount="0" stopTime="0.00" timeLoss="38.16" rerouteNo="0" devices="tripinfo_26" vType="DEFAULT_VEHTYPE" speedFactor="1.12" vaporized=""/>
    <tripinfo id="27" depart="48.00" departLane="E0_0" departPos="5.10" departSpeed="5.77" departDelay="28.00" arrival="158.00" arrivalLane="E3_0" arrivalPos="90.46" arrivalSpeed="29.76" duration="110.00" routeLength="1314.99" waitingTime="0.00" waitingCount="0" stopTime="0.00" timeLoss="27.21" rerouteNo="0" devices="tripinfo_27" vType="DEFAULT_VEHTYPE" speedFactor="0.99" vaporized=""/>
    <tripinfo id="28" depart="50.00" departLane="E0_0" departPos="5.10" departSpeed="6.21" departDelay="30.00" arrival="159.00" arrivalLane="E3_0" arrivalPos="90.46" arrivalSpeed="28.80" duration="109.00" routeLength="1314.99" waitingTime="0.00" waitingCount="0" stopTime="0.00" timeLoss="24.29" rerouteNo="0" devices="tripinfo_28" vType="DEFAULT_VEHTYPE" speedFactor="0.97" vaporized=""/>
    <tripinfo id="30" depart="54.00" departLane="E0_0" departPos="5.10" departSpeed="5.67" departDelay="31.00" arrival="162.00" arrivalLane="E3_0" arrivalPos="90.46" arrivalSpeed="27.86" duration="108.00" routeLength="1314.99" waitingTime="0.00" waitingCount="0" stopTime="0.00" timeLoss="20.82" rerouteNo="0" devices="tripinfo_30" vType="DEFAULT_VEHTYPE" speedFactor="0.94" vaporized=""/>
    <tripinfo id="31" depart="56.00" departLane="E0_0" departPos="5.10" departSpeed="4.46" departDelay="27.00" arrival="164.00" arrivalLane="E3_0" arrivalPos="90.46" arrivalSpeed="31.65" duration="108.00" routeLength="1314.99" waitingTime="0.00" waitingCount="0" stopTime="0.00" timeLoss="33.13" rerouteNo="0" devices="tripinfo_31" vType="DEFAULT_VEHTYPE" speedFactor="1.10" vaporized=""/>
    <tripinfo id="33" depart="61.00" departLane="E0_0" departPos="5.10" departSpeed="5.02" departDelay="30.00" arrival="165.00" arrivalLane="E3_0" arrivalPos="90.46" arrivalSpeed="30.89" duration="104.00" routeLength="1314.99" waitingTime="0.00" waitingCount="0" stopTime="0.00" timeLoss="24.40" rerouteNo="0" devices="tripinfo_33" vType="DEFAULT_VEHTYPE" speedFactor="1.03" vaporized=""/>
    <tripinfo id="34" depart="63.00" departLane="E0_0" departPos="5.10" departSpeed="4.69" departDelay="30.00" arrival="166.00" arrivalLane="E3_0" arrivalPos="90.46" arrivalSpeed="31.26" duration="103.00" routeLength="1314.99" waitingTime="0.00" waitingCount="0" stopTime="0.00" timeLoss="26.34" rerouteNo="0" devices="tripinfo_34" vType="DEFAULT_VEHTYPE" speedFactor="1.07" vaporized=""/>
    <tripinfo id="35" depart="65.00" departLane="E0_0" departPos="5.10" departSpeed="4.84" departDelay="32.00" arrival="168.00" arrivalLane="E3_0" arrivalPos="90.46" arrivalSpeed="29.91" duration="103.00" routeLength="1314.99" waitingTime="0.00" waitingCount="0" stopTime="0.00" timeLoss="23.79" rerouteNo="0" devices="tripinfo_35" vType="DEFAULT_VEHTYPE" speedFactor="1.04" vaporized=""/>
    <tripinfo id="10" depart="13.00" departLane="E0_0" departPos="5.10" departSpeed="5.70" departDelay="7.00" arrival="178.00" arrivalLane="E3_0" arrivalPos="90.46" arrivalSpeed="24.38" duration="165.00" routeLength="1317.38" waitingTime="44.00" waitingCount="2" stopTime="0.00" timeLoss="71.79" rerouteNo="0" devices="tripinfo_10" vType="DEFAULT_VEHTYPE" speedFactor="0.92" vaporized=""/>
    <tripinfo id="37" depart="69.00" departLane="E0_0" departPos="5.10" departSpeed="0.60" departDelay="29.00" arrival="182.00" arrivalLane="E3_0" arrivalPos="90.46" arrivalSpeed="25.89" duration="113.00" routeLength="1314.99" waitingTime="0.00" waitingCount="0" stopTime="0.00" timeLoss="22.07" rerouteNo="0" devices="tripinfo_37" vType="DEFAULT_VEHTYPE" speedFactor="0.90" vaporized=""/>
    <tripinfo id="40" depart="77.00" departLane="E0_0" departPos="5.10" departSpeed="4.32" departDelay="35.00" arrival="184.00" arrivalLane="E3_0" arrivalPos="90.46" arrivalSpeed="30.28" duration="107.00" routeLength="1314.99" waitingTime="0.00" waitingCount="0" stopTime="0.00" timeLoss="29.45" rerouteNo="0" devices="tripinfo_40" vType="DEFAULT_VEHTYPE" speedFactor="1.06" vaporized=""/>
    <tripinfo id="41" depart="79.00" departLane="E0_0" departPos="5.10" departSpeed="3.14" departDelay="34.00" arrival="185.00" arrivalLane="E3_0" arrivalPos="90.46" arrivalSpeed="30.94" duration="106.00" routeLength="1314.99" waitingTime="0.00" waitingCount="0" stopTime="0.00" timeLoss="35.63" rerouteNo="0" devices="tripinfo_41" vType="DEFAULT_VEHTYPE" speedFactor="1.17" vaporized=""/>
    <tripinfo id="47" depart="95.00" departLane="E0_0" departPos="5.10" departSpeed="4.47" departDelay="46.00" arrival="195.00" arrivalLane="E3_0" arrivalPos="90.46" arrivalSpeed="30.12" duration="100.00" routeLength="1314.99" waitingTime="0.00" waitingCount="0" stopTime="0.00" timeLoss="19.19" rerouteNo="0" devices="tripinfo_47" vType="DEFAULT_VEHTYPE" speedFactor="1.02" vaporized=""/>
    <tripinfo id="48" depart="97.00" departLane="E0_0" departPos="5.10" departSpeed="3.39" departDelay="48.00" arrival="200.00" arrivalLane="E3_0" arrivalPos="90.46" arrivalSpeed="29.68" duration="103.00" routeLength="1314.99" waitingTime="0.00" waitingCount="0" stopTime="0.00" timeLoss="20.18" rerouteNo="0" devices="tripinfo_48" vType="DEFAULT_VEHTYPE" speedFactor="1.00" vaporized=""/>
    <tripinfo id="49" depart="99.00" departLane="E0_0" departPos="5.10" departSpeed="2.17" departDelay="47.00" arrival="201.00" arrivalLane="E3_0" arrivalPos="90.46" arrivalSpeed="31.28" duration="102.00" routeLength="1314.99" waitingTime="0.00" waitingCount="0" stopTime="0.00" timeLoss="28.76" rerouteNo="0" devices="tripinfo_49" vType="DEFAULT_VEHTYPE" speedFactor="1.12" vaporized=""/>
    <tripinfo id="13" depart="19.00" departLane="E0_0" departPos="5.10" departSpeed="6.88" departDelay="10.00" arrival="211.00" arrivalLane="E3_0" arrivalPos="90.46" arrivalSpeed="25.76" duration="192.00" routeLength="1317.38" waitingTime="63.00" waitingCount="3" stopTime="0.00" timeLoss="99.16" rerouteNo="0" devices="tripinfo_13" vType="DEFAULT_VEHTYPE" speedFactor="0.93" vaporized=""/>
    <tripinfo id="52" depart="107.00" departLane="E0_0" departPos="5.10" departSpeed="0.88" departDelay="52.00" arrival="213.00" arrivalLane="E3_0" arrivalPos="90.46" arrivalSpeed="27.64" duration="106.00" routeLength="1314.99" waitingTime="0.00" waitingCount="0" stopTime="0.00" timeLoss="19.92" rerouteNo="0" devices="tripinfo_52" vType="DEFAULT_VEHTYPE" speedFactor="0.96" vaporized=""/>
    <tripinfo id="53" depart="110.00" departLane="E0_0" departPos="5.10" departSpeed="0.07" departDelay="55.00" arrival="219.00" arrivalLane="E3_0" arrivalPos="90.46" arrivalSpeed="26.39" duration="109.00" routeLength="1314.99" waitingTime="1.00" waitingCount="1" stopTime="0.00" timeLoss="18.41" rerouteNo="0" devices="tripinfo_53" vType="DEFAULT_VEHTYPE" speedFactor="0.91" vaporized=""/>
    <tripinfo id="54" depart="114.00" departLane="E0_0" departPos="5.10" departSpeed="3.30" departDelay="58.00" arrival="221.00" arrivalLane="E3_0" arrivalPos="90.46" arrivalSpeed="27.71" duration="107.00" routeLength="1314.99" waitingTime="0.00" waitingCount="0" stopTime="0.00" timeLoss="20.02" rerouteNo="0" devices="tripinfo_54" vType="DEFAULT_VEHTYPE" speedFactor="0.95" vaporized=""/>
    <tripinfo id="55" depart="116.00" departLane="E0_0" departPos="5.10" departSpeed="1.22" departDelay="59.00" arrival="222.00" arrivalLane="E3_0" arrivalPos="90.46" arrivalSpeed="29.63" duration="106.00" routeLength="1314.99" waitingTime="0.00" waitingCount="0" stopTime="0.00" timeLoss="25.51" rerouteNo="0" devices="tripinfo_55" vType="DEFAULT_VEHTYPE" speedFactor="1.02" vaporized=""/>
    <tripinfo id="57" depart="122.00" departLane="E0_0" departPos="5.10" departSpeed="7.27" departDelay="64.00" arrival="223.00" arrivalLane="E3_0" arrivalPos="90.46" arrivalSpeed="29.75" duration="101.00" routeLength="1314.99" waitingTime="0.00" waitingCount="0" stopTime="0.00" timeLoss="23.39" rerouteNo="0" devices="tripinfo_57" vType="DEFAULT_VEHTYPE" speedFactor="1.06" vaporized=""/>
    <tripinfo id="58" depart="124.00" departLane="E0_0" departPos="5.10" departSpeed="6.81" departDelay="64.00" arrival="225.00" arrivalLane="E3_0" arrivalPos="90.46" arrivalSpeed="31.41" duration="101.00" routeLength="1314.99" waitingTime="0.00" waitingCount="0" stopTime="0.00" timeLoss="27.07" rerouteNo="0" devices="tripinfo_58" vType="DEFAULT_VEHTYPE" speedFactor="1.12" vaporized=""/>
    <tripinfo id="59" depart="126.00" departLane="E0_0" departPos="5.10" departSpeed="6.83" departDelay="66.00" arrival="226.00" arrivalLane="E3_0" arrivalPos="90.46" arrivalSpeed="30.96" duration="100.00" routeLength="1314.99" waitingTime="0.00" waitingCount="0" stopTime="0.00" timeLoss="20.47" rerouteNo="0" devices="tripinfo_59" vType="DEFAULT_VEHTYPE" speedFactor="1.03" vaporized=""/>
    <tripinfo id="60" depart="128.00" departLane="E0_0" departPos="5.10" departSpeed="7.46" departDelay="65.00" arrival="237.00" arrivalLane="E3_0" arrivalPos="90.46" arrivalSpeed="27.17" duration="109.00" routeLength="1314.99" waitingTime="0.00" waitingCount="0" stopTime="0.00" timeLoss="19.05" rerouteNo="0" devices="tripinfo_60" vType="DEFAULT_VEHTYPE" speedFactor="0.92" vaporized=""/>
    <tripinfo id="61" depart="130.00" departLane="E0_0" departPos="5.10" departSpeed="9.08" departDelay="66.00" arrival="238.00" arrivalLane="E3_0" arrivalPos="90.46" arrivalSpeed="30.31" duration="108.00" routeLength="1314.99" waitingTime="0.00" waitingCount="0" stopTime="0.00" timeLoss="32.49" rerouteNo="0" devices="tripinfo_61" vType="DEFAULT_VEHTYPE" speedFactor="1.09" vaporized=""/>
    <tripinfo id="63" depart="133.00" departLane="E0_0" departPos="5.10" departSpeed="5.07" departDelay="67.00" arrival="240.00" arrivalLane="E3_0" arrivalPos="90.46" arrivalSpeed="29.65" duration="107.00" routeLength="1314.99" waitingTime="0.00" waitingCount="0" stopTime="0.00" timeLoss="25.76" rerouteNo="0" devices="tripinfo_63" vType="DEFAULT_VEHTYPE" speedFactor="1.02" vaporized=""/>
    <tripinfo id="64" depart="135.00" departLane="E0_0" departPos="5.10" departSpeed="4.77" departDelay="68.00" arrival="241.00" arrivalLane="E3_0" arrivalPos="90.46" arrivalSpeed="31.58" duration="106.00" routeLength="1314.99" waitingTime="0.00" waitingCount="0" stopTime="0.00" timeLoss="29.91" rerouteNo="0" devices="tripinfo_64" vType="DEFAULT_VEHTYPE" speedFactor="1.08" vaporized=""/>
    <tripinfo id="66" depart="139.00" departLane="E0_0" departPos="5.10" departSpeed="2.95" departDelay="69.00" arrival="245.00" arrivalLane="E3_0" arrivalPos="90.46" arrivalSpeed="28.12" duration="106.00" routeLength="1314.99" waitingTime="0.00" waitingCount="0" stopTime="0.00" timeLoss="21.79" rerouteNo="0" devices="tripinfo_66" vType="DEFAULT_VEHTYPE" speedFactor="0.98" vaporized=""/>
    <tripinfo id="67" depart="141.00" departLane="E0_0" departPos="5.10" departSpeed="0.22" departDelay="70.00" arrival="246.00" arrivalLane="E3_0" arrivalPos="90.46" arrivalSpeed="29.18" duration="105.00" routeLength="1314.99" waitingTime="0.00" waitingCount="0" stopTime="0.00" timeLoss="23.33" rerouteNo="0" devices="tripinfo_67" vType="DEFAULT_VEHTYPE" speedFactor="1.01" vaporized=""/>
    <tripinfo id="15" depart="23.00" departLane="E0_0" departPos="5.10" departSpeed="8.25" departDelay="11.00" arrival="255.00" arrivalLane="E3_0" arrivalPos="90.46" arrivalSpeed="24.37" duration="232.00" routeLength="1317.38" waitingTime="102.00" waitingCount="4" stopTime="0.00" timeLoss="140.48" rerouteNo="0" devices="tripinfo_15" vType="DEFAULT_VEHTYPE" speedFactor="0.94" vaporized=""/>
    <tripinfo id="16" depart="25.00" departLane="E0_0" departPos="5.10" departSpeed="8.27" departDelay="13.00" arrival="258.00" arrivalLane="E3_0" arrivalPos="90.46" arrivalSpeed="24.90" duration="233.00" routeLength="1317.38" waitingTime="98.00" waitingCount="4" stopTime="0.00" timeLoss="153.60" rerouteNo="0" devices="tripinfo_16" vType="DEFAULT_VEHTYPE" speedFactor="1.08" vaporized=""/>
    <tripinfo id="17" depart="27.00" departLane="E0_0" departPos="5.10" departSpeed="8.88" departDelay="13.00" arrival="259.00" arrivalLane="E3_0" arrivalPos="90.46" arrivalSpeed="25.10" duration="232.00" routeLength="1317.38" waitingTime="95.00" waitingCount="4" stopTime="0.00" timeLoss="147.53" rerouteNo="0" devices="tripinfo_17" vType="DEFAULT_VEHTYPE" speedFactor="1.01" vaporized=""/>
    <tripinfo id="69" depart="147.00" departLane="E0_0" departPos="5.10" departSpeed="5.54" departDelay="71.00" arrival="266.00" arrivalLane="E3_0" arrivalPos="90.46" arrivalSpeed="24.61" duration="119.00" routeLength="1314.99" waitingTime="0.00" waitingCount="0" stopTime="0.00" timeLoss="20.83" rerouteNo="0" devices="tripinfo_69" vType="DEFAULT_VEHTYPE" speedFactor="0.83" vaporized=""/>
    <tripinfo id="70" depart="149.00" departLane="E0_0" departPos="5.10" departSpeed="4.25" departDelay="73.00" arrival="268.00" arrivalLane="E3_0" arrivalPos="90.46" arrivalSpeed="27.89" duration="119.00" routeLength="1314.99" waitingTime="0.00" waitingCount="0" stopTime="0.00" timeLoss="40.67" rerouteNo="0" devices="tripinfo_70" vType="DEFAULT_VEHTYPE" speedFactor="1.05" vaporized=""/>
    <tripinfo id="71" depart="151.00" departLane="E0_0" departPos="5.10" departSpeed="0.98" departDelay="74.00" arrival="269.00" arrivalLane="E3_0" arrivalPos="90.46" arrivalSpeed="28.44" duration="118.00" routeLength="1314.99" waitingTime="0.00" waitingCount="0" stopTime="0.00" timeLoss="40.14" rerouteNo="0" devices="tripinfo_71" vType="DEFAULT_VEHTYPE" speedFactor="1.06" vaporized=""/>
    <tripinfo id="72" depart="154.00" departLane="E0_0" departPos="5.10" departSpeed="0.88" departDelay="77.00" arrival="271.00" arrivalLane="E3_0" arrivalPos="90.46" arrivalSpeed="24.91" duration="117.00" routeLength="1314.99" waitingTime="0.00" waitingCount="0" stopTime="0.00" timeLoss="22.35" rerouteNo="0" devices="tripinfo_72" vType="DEFAULT_VEHTYPE" speedFactor="0.86" vaporized=""/>
    <tripinfo id="73" depart="157.00" departLane="E0_0" departPos="5.10" departSpeed="1.36" departDelay="78.00" arrival="273.00" arrivalLane="E3_0" arrivalPos="90.46" arrivalSpeed="26.96" duration="116.00" routeLength="1314.99" waitingTime="0.00" waitingCount="0" stopTime="0.00" timeLoss="25.25" rerouteNo="0" devices="tripinfo_73" vType="DEFAULT_VEHTYPE" speedFactor="0.91" vaporized=""/>
    <tripinfo id="74" depart="160.00" departLane="E0_0" departPos="5.10" departSpeed="1.91" departDelay="81.00" arrival="274.00" arrivalLane="E3_0" arrivalPos="90.46" arrivalSpeed="29.32" duration="114.00" routeLength="1314.99" waitingTime="0.00" waitingCount="0" stopTime="0.00" timeLoss="42.52" rerouteNo="0" devices="tripinfo_74" vType="DEFAULT_VEHTYPE" speedFactor="1.14" vaporized=""/>
    <tripinfo id="77" depart="167.00" departLane="E0_0" departPos="5.10" departSpeed="2.35" departDelay="84.00" arrival="276.00" arrivalLane="E3_0" arrivalPos="90.46" arrivalSpeed="28.06" duration="109.00" routeLength="1314.99" waitingTime="0.00" waitingCount="0" stopTime="0.00" timeLoss="23.59" rerouteNo="0" devices="tripinfo_77" vType="DEFAULT_VEHTYPE" speedFactor="0.97" vaporized=""/>
    <tripinfo id="78" depart="170.00" departLane="E0_0" departPos="5.10" departSpeed="4.50" departDelay="87.00" arrival="277.00" arrivalLane="E3_0" arrivalPos="90.46" arrivalSpeed="27.98" duration="107.00" routeLength="1314.99" waitingTime="0.00" waitingCount="0" stopTime="0.00" timeLoss="20.70" rerouteNo="0" devices="tripinfo_78" vType="DEFAULT_VEHTYPE" speedFactor="0.95" vaporized=""/>
    <tripinfo id="79" depart="172.00" departLane="E0_0" departPos="5.10" departSpeed="3.28" departDelay="86.00" arrival="279.00" arrivalLane="E3_0" arrivalPos="90.46" arrivalSpeed="32.18" duration="107.00" routeLength="1314.99" waitingTime="0.00" waitingCount="0" stopTime="0.00" timeLoss="30.20" rerouteNo="0" devices="tripinfo_79" vType="DEFAULT_VEHTYPE" speedFactor="1.07" vaporized=""/>
    <tripinfo id="81" depart="177.00" departLane="E0_0" departPos="5.10" departSpeed="6.82" departDelay="87.00" arrival="280.00" arrivalLane="E3_0" arrivalPos="90.46" arrivalSpeed="30.16" duration="103.00" routeLength="1314.99" waitingTime="0.00" waitingCount="0" stopTime="0.00" timeLoss="23.80" rerouteNo="0" devices="tripinfo_81" vType="DEFAULT_VEHTYPE" speedFactor="1.03" vaporized=""/>
    <tripinfo id="82" depart="179.00" departLane="E0_0" departPos="5.10" departSpeed="7.54" departDelay="88.00" arrival="283.00" arrivalLane="E3_0" arrivalPos="90.46" arrivalSpeed="28.92" duration="104.00" routeLength="1314.99" waitingTime="0.00" waitingCount="0" stopTime="0.00" timeLoss="19.63" rerouteNo="0" devices="tripinfo_82" vType="DEFAULT_VEHTYPE" speedFactor="0.98" vaporized=""/>
    <tripinfo id="84" depart="182.00" departLane="E0_0" departPos="5.10" departSpeed="4.50" departDelay="88.00" arrival="284.00" arrivalLane="E3_0" arrivalPos="90.46" arrivalSpeed="30.25" duration="102.00" routeLength="1314.99" waitingTime="0.00" waitingCount="0" stopTime="0.00" timeLoss="36.13" rerouteNo="0" devices="tripinfo_84" vType="DEFAULT_VEHTYPE" speedFactor="1.25" vaporized=""/>
    <tripinfo id="19" depart="30.00" departLane="E0_0" departPos="5.10" departSpeed="2.75" departDelay="16.00" arrival="293.00" arrivalLane="E3_0" arrivalPos="90.46" arrivalSpeed="24.60" duration="263.00" routeLength="1317.38" waitingTime="117.00" waitingCount="4" stopTime="0.00" timeLoss="166.46" rerouteNo="0" devices="tripinfo_19" vType="DEFAULT_VEHTYPE" speedFactor="0.89" vaporized=""/>
    <tripinfo id="85" depart="185.00" departLane="E0_0" departPos="5.10" departSpeed="2.45" departDelay="90.00" arrival="301.00" arrivalLane="E3_0" arrivalPos="90.46" arrivalSpeed="24.91" duration="116.00" routeLength="1314.99" waitingTime="0.00" waitingCount="0" stopTime="0.00" timeLoss="20.75" rerouteNo="0" devices="tripinfo_85" vType="DEFAULT_VEHTYPE" speedFactor="0.87" vaporized=""/>
    <tripinfo id="87" depart="191.00" departLane="E0_0" departPos="5.10" departSpeed="6.51" departDelay="95.00" arrival="302.00" arrivalLane="E3_0" arrivalPos="90.46" arrivalSpeed="27.39" duration="111.00" routeLength="1314.99" waitingTime="0.00" waitingCount="0" stopTime="0.00" timeLoss="36.37" rerouteNo="0" devices="tripinfo_87" vType="DEFAULT_VEHTYPE" speedFactor="1.10" vaporized=""/>
    <tripinfo id="88" depart="193.00" departLane="E0_0" departPos="5.10" departSpeed="6.11" departDelay="94.00" arrival="304.00" arrivalLane="E3_0" arrivalPos="90.46" arrivalSpeed="28.05" duration="111.00" routeLength="1314.99" waitingTime="0.00" waitingCount="0" stopTime="0.00" timeLoss="25.78" rerouteNo="0" devices="tripinfo_88" vType="DEFAULT_VEHTYPE" speedFactor="0.97" vaporized=""/>
    <tripinfo id="90" depart="197.00" departLane="E0_0" departPos="5.10" departSpeed="5.25" departDelay="97.00" arrival="305.00" arrivalLane="E3_0" arrivalPos="90.46" arrivalSpeed="28.02" duration="108.00" routeLength="1314.99" waitingTime="0.00" waitingCount="0" stopTime="0.00" timeLoss="35.25" rerouteNo="0" devices="tripinfo_90" vType="DEFAULT_VEHTYPE" speedFactor="1.13" vaporized=""/>
    <tripinfo id="91" depart="199.00" departLane="E0_0" departPos="5.10" departSpeed="0.59" departDelay="99.00" arrival="307.00" arrivalLane="E3_0" arrivalPos="90.46" arrivalSpeed="28.12" duration="108.00" routeLength="1314.99" waitingTime="0.00" waitingCount="0" stopTime="0.00" timeLoss="24.42" rerouteNo="0" devices="tripinfo_91" vType="DEFAULT_VEHTYPE" speedFactor="0.99" vaporized=""/>
    <tripinfo id="95" depart="209.00" departLane="E0_0" departPos="5.10" departSpeed="5.02" departDelay="104.00" arrival="311.00" arrivalLane="E3_0" arrivalPos="90.46" arrivalSpeed="29.92" duration="102.00" routeLength="1314.99" waitingTime="0.00" waitingCount="0" stopTime="0.00" timeLoss="20.97" rerouteNo="0" devices="tripinfo_95" vType="DEFAULT_VEHTYPE" speedFactor="1.02" vaporized=""/>
    <tripinfo id="97" depart="213.00" departLane="E0_0" departPos="5.10" departSpeed="4.06" departDelay="102.00" arrival="315.00" arrivalLane="E3_0" arrivalPos="90.46" arrivalSpeed="30.12" duration="102.00" routeLength="1314.99" waitingTime="0.00" waitingCount="0" stopTime="0.00" timeLoss="22.35" rerouteNo="0" devices="tripinfo_97" vType="DEFAULT_VEHTYPE" speedFactor="1.03" vaporized=""/>
    <tripinfo id="98" depart="215.00" departLane="E0_0" departPos="5.10" departSpeed="3.72" departDelay="104.00" arrival="319.00" arrivalLane="E3_0" arrivalPos="90.46" arrivalSpeed="29.10" duration="104.00" routeLength="1314.99" waitingTime="0.00" waitingCount="0" stopTime="0.00" timeLoss="22.35" rerouteNo="0" devices="tripinfo_98" vType="DEFAULT_VEHTYPE" speedFactor="1.00" vaporized=""/>
    <tripinfo id="99" depart="218.00" departLane="E0_0" departPos="5.10" departSpeed="3.76" departDelay="106.00" arrival="321.00" arrivalLane="E3_0" arrivalPos="90.46" arrivalSpeed="33.17" duration="103.00" routeLength="1314.99" waitingTime="0.00" waitingCount="0" stopTime="0.00" timeLoss="29.08" rerouteNo="0" devices="tripinfo_99" vType="DEFAULT_VEHTYPE" speedFactor="1.12" vaporized=""/>