<?xml version="1.0" encoding="UTF-8"?>

<!-- generated on 2023-04-28 23:09:20 by Eclipse SUMO sumo Version 1.16.0
<configuration xmlns:xsi="http://www.w3.org/2001/XMLSchema-instance" xsi:noNamespaceSchemaLocation="http://sumo.dlr.de/xsd/sumoConfiguration.xsd">

    <input>
        <net-file value="C:\Users\Local_Man\Desktop\Stolen%20Music\school%20stuff%20for%20college\Semester%2015%20(UH%20Graduate%20School)\COSC%206364%20Nikolaos\SUMO_Project\COSC6364_Project\configurations\maps\Braess_Homebrew_fixed1.net.xml"/>
        <route-files value="./configurations/Rounds/Braess_Homebrew_fixed1.net.xml-test-2/Macroscopic_DUE/019/Trips_File_019.rou.xml"/>
    </input>

    <output>
        <summary-output value="./configurations/Rounds/Braess_Homebrew_fixed1.net.xml-test-2/Macroscopic_DUE/019/summary.xml"/>
        <tripinfo-output value="./configurations/Rounds/Braess_Homebrew_fixed1.net.xml-test-2/Macroscopic_DUE/019/trips.trips.xml"/>
        <statistic-output value="./configurations/Rounds/Braess_Homebrew_fixed1.net.xml-test-2/Macroscopic_DUE/019/stats_output.xml"/>
    </output>

    <time>
        <begin value="0"/>
    </time>

    <report>
        <log value="./configurations/Rounds/Braess_Homebrew_fixed1.net.xml-test-2/Macroscopic_DUE/019/log.sumo.log"/>
        <no-step-log value="true"/>
    </report>

    <gui_only>
        <quit-on-end value="true"/>
    </gui_only>

</configuration>
-->

<tripinfos xmlns:xsi="http://www.w3.org/2001/XMLSchema-instance" xsi:noNamespaceSchemaLocation="http://sumo.dlr.de/xsd/tripinfo_file.xsd">
    <tripinfo id="2" depart="3.00" departLane="E0_0" departPos="5.10" departSpeed="19.50" departDelay="0.00" arrival="97.00" arrivalLane="E3_0" arrivalPos="90.46" arrivalSpeed="28.43" duration="94.00" routeLength="1314.99" waitingTime="0.00" waitingCount="0" stopTime="0.00" timeLoss="9.79" rerouteNo="0" devices="tripinfo_2" vType="DEFAULT_VEHTYPE" speedFactor="0.98" vaporized=""/>
    <tripinfo id="4" depart="8.00" departLane="E0_0" departPos="5.10" departSpeed="24.01" departDelay="0.00" arrival="99.00" arrivalLane="E3_0" arrivalPos="90.46" arrivalSpeed="31.46" duration="91.00" routeLength="1314.99" waitingTime="0.00" waitingCount="0" stopTime="0.00" timeLoss="21.98" rerouteNo="0" devices="tripinfo_4" vType="DEFAULT_VEHTYPE" speedFactor="1.20" vaporized=""/>
    <tripinfo id="5" depart="9.00" departLane="E0_0" departPos="5.10" departSpeed="20.92" departDelay="0.00" arrival="100.00" arrivalLane="E3_0" arrivalPos="90.46" arrivalSpeed="31.20" duration="91.00" routeLength="1314.99" waitingTime="0.00" waitingCount="0" stopTime="0.00" timeLoss="12.18" rerouteNo="0" devices="tripinfo_5" vType="DEFAULT_VEHTYPE" speedFactor="1.05" vaporized=""/>
    <tripinfo id="7" depart="12.00" departLane="E0_0" departPos="5.10" departSpeed="18.76" departDelay="0.00" arrival="111.00" arrivalLane="E3_0" arrivalPos="90.46" arrivalSpeed="27.34" duration="99.00" routeLength="1314.99" waitingTime="0.00" waitingCount="0" stopTime="0.00" timeLoss="11.42" rerouteNo="0" devices="tripinfo_7" vType="DEFAULT_VEHTYPE" speedFactor="0.94" vaporized=""/>
    <tripinfo id="9" depart="15.00" departLane="E0_0" departPos="5.10" departSpeed="18.22" departDelay="0.00" arrival="113.00" arrivalLane="E3_0" arrivalPos="90.46" arrivalSpeed="31.01" duration="98.00" routeLength="1314.99" waitingTime="0.00" waitingCount="0" stopTime="0.00" timeLoss="21.85" rerouteNo="0" devices="tripinfo_9" vType="DEFAULT_VEHTYPE" speedFactor="1.09" vaporized=""/>
    <tripinfo id="10" depart="16.00" departLane="E0_0" departPos="5.10" departSpeed="15.13" departDelay="1.00" arrival="121.00" arrivalLane="E3_0" arrivalPos="90.46" arrivalSpeed="26.40" duration="105.00" routeLength="1314.99" waitingTime="0.00" waitingCount="0" stopTime="0.00" timeLoss="16.45" rerouteNo="0" devices="tripinfo_10" vType="DEFAULT_VEHTYPE" speedFactor="0.92" vaporized=""/>
    <tripinfo id="13" depart="21.00" departLane="E0_0" departPos="5.10" departSpeed="11.57" departDelay="1.00" arrival="126.00" arrivalLane="E3_0" arrivalPos="90.46" arrivalSpeed="26.95" duration="105.00" routeLength="1314.99" waitingTime="0.00" waitingCount="0" stopTime="0.00" timeLoss="16.56" rerouteNo="0" devices="tripinfo_13" vType="DEFAULT_VEHTYPE" speedFactor="0.93" vaporized=""/>
    <tripinfo id="15" depart="23.00" departLane="E0_0" departPos="5.10" departSpeed="3.50" departDelay="0.00" arrival="131.00" arrivalLane="E3_0" arrivalPos="90.46" arrivalSpeed="26.80" duration="108.00" routeLength="1314.99" waitingTime="0.00" waitingCount="0" stopTime="0.00" timeLoss="19.98" rerouteNo="0" devices="tripinfo_15" vType="DEFAULT_VEHTYPE" speedFactor="0.94" vaporized=""/>
    <tripinfo id="16" depart="25.00" departLane="E0_0" departPos="5.10" departSpeed="0.37" departDelay="2.00" arrival="132.00" arrivalLane="E3_0" arrivalPos="90.46" arrivalSpeed="28.03" duration="107.00" routeLength="1314.99" waitingTime="0.00" waitingCount="0" stopTime="0.00" timeLoss="31.09" rerouteNo="0" devices="tripinfo_16" vType="DEFAULT_VEHTYPE" speedFactor="1.08" vaporized=""/>
    <tripinfo id="17" depart="29.00" departLane="E0_0" departPos="5.10" departSpeed="4.58" departDelay="5.00" arrival="134.00" arrivalLane="E3_0" arrivalPos="90.46" arrivalSpeed="29.31" duration="105.00" routeLength="1314.99" waitingTime="0.00" waitingCount="0" stopTime="0.00" timeLoss="23.19" rerouteNo="0" devices="tripinfo_17" vType="DEFAULT_VEHTYPE" speedFactor="1.01" vaporized=""/>
    <tripinfo id="18" depart="31.00" departLane="E0_0" departPos="5.10" departSpeed="3.54" departDelay="7.00" arrival="135.00" arrivalLane="E3_0" arrivalPos="90.46" arrivalSpeed="30.08" duration="104.00" routeLength="1314.99" waitingTime="0.00" waitingCount="0" stopTime="0.00" timeLoss="23.98" rerouteNo="0" devices="tripinfo_18" vType="DEFAULT_VEHTYPE" speedFactor="1.03" vaporized=""/>
    <tripinfo id="19" depart="33.00" departLane="E0_0" departPos="5.10" departSpeed="2.31" departDelay="5.00" arrival="146.00" arrivalLane="E3_0" arrivalPos="90.46" arrivalSpeed="25.49" duration="113.00" routeLength="1314.99" waitingTime="0.00" waitingCount="0" stopTime="0.00" timeLoss="20.09" rerouteNo="0" devices="tripinfo_19" vType="DEFAULT_VEHTYPE" speedFactor="0.89" vaporized=""/>
    <tripinfo id="26" depart="50.00" departLane="E0_0" departPos="5.10" departSpeed="5.92" departDelay="16.00" arrival="147.00" arrivalLane="E3_0" arrivalPos="90.46" arrivalSpeed="28.79" duration="97.00" routeLength="1314.99" waitingTime="0.00" waitingCount="0" stopTime="0.00" timeLoss="23.24" rerouteNo="0" devices="tripinfo_26" vType="DEFAULT_VEHTYPE" speedFactor="1.12" vaporized=""/>
    <tripinfo id="29" depart="56.00" departLane="E0_0" departPos="5.10" departSpeed="7.62" departDelay="19.00" arrival="154.00" arrivalLane="E3_0" arrivalPos="90.46" arrivalSpeed="29.64" duration="98.00" routeLength="1314.99" waitingTime="0.00" waitingCount="0" stopTime="0.00" timeLoss="17.09" rerouteNo="0" devices="tripinfo_29" vType="DEFAULT_VEHTYPE" speedFactor="1.02" vaporized=""/>
    <tripinfo id="30" depart="58.00" departLane="E0_0" departPos="5.10" departSpeed="7.90" departDelay="21.00" arrival="164.00" arrivalLane="E3_0" arrivalPos="90.46" arrivalSpeed="28.15" duration="106.00" routeLength="1314.99" waitingTime="0.00" waitingCount="0" stopTime="0.00" timeLoss="18.30" rerouteNo="0" devices="tripinfo_30" vType="DEFAULT_VEHTYPE" speedFactor="0.94" vaporized=""/>
    <tripinfo id="31" depart="59.00" departLane="E0_0" departPos="5.10" departSpeed="3.47" departDelay="22.00" arrival="165.00" arrivalLane="E3_0" arrivalPos="90.46" arrivalSpeed="29.38" duration="106.00" routeLength="1314.99" waitingTime="0.00" waitingCount="0" stopTime="0.00" timeLoss="31.59" rerouteNo="0" devices="tripinfo_31" vType="DEFAULT_VEHTYPE" speedFactor="1.10" vaporized=""/>
    <tripinfo id="3" depart="4.00" departLane="E0_0" departPos="5.10" departSpeed="16.96" departDelay="1.00" arrival="175.00" arrivalLane="E3_0" arrivalPos="90.46" arrivalSpeed="24.51" duration="171.00" routeLength="1317.38" waitingTime="69.00" waitingCount="1" stopTime="0.00" timeLoss="91.41" rerouteNo="0" devices="tripinfo_3" vType="DEFAULT_VEHTYPE" speedFactor="1.08" vaporized=""/>
    <tripinfo id="32" depart="62.00" departLane="E0_0" departPos="5.10" departSpeed="2.76" departDelay="24.00" arrival="179.00" arrivalLane="E3_0" arrivalPos="90.46" arrivalSpeed="24.71" duration="117.00" routeLength="1314.99" waitingTime="0.00" waitingCount="0" stopTime="0.00" timeLoss="18.93" rerouteNo="0" devices="tripinfo_32" vType="DEFAULT_VEHTYPE" speedFactor="0.83" vaporized=""/>
    <tripinfo id="34" depart="67.00" departLane="E0_0" departPos="5.10" departSpeed="4.52" departDelay="29.00" arrival="181.00" arrivalLane="E3_0" arrivalPos="90.46" arrivalSpeed="27.33" duration="114.00" routeLength="1314.99" waitingTime="0.00" waitingCount="0" stopTime="0.00" timeLoss="36.78" rerouteNo="0" devices="tripinfo_34" vType="DEFAULT_VEHTYPE" speedFactor="1.07" vaporized=""/>
    <tripinfo id="6" depart="10.00" departLane="E0_0" departPos="5.10" departSpeed="18.18" departDelay="0.00" arrival="190.00" arrivalLane="E3_0" arrivalPos="90.46" arrivalSpeed="25.99" duration="180.00" routeLength="1317.38" waitingTime="73.00" waitingCount="2" stopTime="0.00" timeLoss="100.17" rerouteNo="0" devices="tripinfo_6" vType="DEFAULT_VEHTYPE" speedFactor="1.08" vaporized=""/>
    <tripinfo id="36" depart="72.00" departLane="E0_0" departPos="5.10" departSpeed="2.86" departDelay="32.00" arrival="197.00" arrivalLane="E3_0" arrivalPos="90.46" arrivalSpeed="22.91" duration="125.00" routeLength="1314.99" waitingTime="0.00" waitingCount="0" stopTime="0.00" timeLoss="18.59" rerouteNo="0" devices="tripinfo_36" vType="DEFAULT_VEHTYPE" speedFactor="0.77" vaporized=""/>
    <tripinfo id="38" depart="77.00" departLane="E0_0" departPos="5.10" departSpeed="6.01" departDelay="36.00" arrival="199.00" arrivalLane="E3_0" arrivalPos="90.46" arrivalSpeed="27.44" duration="122.00" routeLength="1314.99" waitingTime="0.00" waitingCount="0" stopTime="0.00" timeLoss="41.03" rerouteNo="0" devices="tripinfo_38" vType="DEFAULT_VEHTYPE" speedFactor="1.02" vaporized=""/>
    <tripinfo id="39" depart="79.00" departLane="E0_0" departPos="5.10" departSpeed="7.05" departDelay="34.00" arrival="200.00" arrivalLane="E3_0" arrivalPos="90.46" arrivalSpeed="25.79" duration="121.00" routeLength="1314.99" waitingTime="0.00" waitingCount="0" stopTime="0.00" timeLoss="27.29" rerouteNo="0" devices="tripinfo_39" vType="DEFAULT_VEHTYPE" speedFactor="0.88" vaporized=""/>
    <tripinfo id="42" depart="85.00" departLane="E0_0" departPos="5.10" departSpeed="7.52" departDelay="39.00" arrival="201.00" arrivalLane="E3_0" arrivalPos="90.46" arrivalSpeed="26.47" duration="116.00" routeLength="1314.99" waitingTime="0.00" waitingCount="0" stopTime="0.00" timeLoss="37.86" rerouteNo="0" devices="tripinfo_42" vType="DEFAULT_VEHTYPE" speedFactor="1.05" vaporized=""/>
    <tripinfo id="43" depart="87.00" departLane="E0_0" departPos="5.10" departSpeed="7.59" departDelay="37.00" arrival="203.00" arrivalLane="E3_0" arrivalPos="90.46" arrivalSpeed="28.54" duration="116.00" routeLength="1314.99" waitingTime="0.00" waitingCount="0" stopTime="0.00" timeLoss="33.94" rerouteNo="0" devices="tripinfo_43" vType="DEFAULT_VEHTYPE" speedFactor="1.00" vaporized=""/>
    <tripinfo id="44" depart="89.00" departLane="E0_0" departPos="5.10" departSpeed="8.36" departDelay="38.00" arrival="204.00" arrivalLane="E3_0" arrivalPos="90.46" arrivalSpeed="28.48" duration="115.00" routeLength="1314.99" waitingTime="0.00" waitingCount="0" stopTime="0.00" timeLoss="40.44" rerouteNo="0" devices="tripinfo_44" vType="DEFAULT_VEHTYPE" speedFactor="1.10" vaporized=""/>
    <tripinfo id="45" depart="91.00" departLane="E0_0" departPos="5.10" departSpeed="6.10" departDelay="40.00" arrival="206.00" arrivalLane="E3_0" arrivalPos="90.46" arrivalSpeed="25.91" duration="115.00" routeLength="1314.99" waitingTime="0.00" waitingCount="0" stopTime="0.00" timeLoss="23.30" rerouteNo="0" devices="tripinfo_45" vType="DEFAULT_VEHTYPE" speedFactor="0.90" vaporized=""/>
    <tripinfo id="46" depart="93.00" departLane="E0_0" departPos="5.10" departSpeed="6.21" departDelay="41.00" arrival="207.00" arrivalLane="E3_0" arrivalPos="90.46" arrivalSpeed="27.97" duration="114.00" routeLength="1314.99" waitingTime="0.00" waitingCount="0" stopTime="0.00" timeLoss="28.40" rerouteNo="0" devices="tripinfo_46" vType="DEFAULT_VEHTYPE" speedFactor="0.96" vaporized=""/>
    <tripinfo id="50" depart="104.00" departLane="E0_0" departPos="5.10" departSpeed="4.87" departDelay="46.00" arrival="209.00" arrivalLane="E3_0" arrivalPos="90.46" arrivalSpeed="29.46" duration="105.00" routeLength="1314.99" waitingTime="0.00" waitingCount="0" stopTime="0.00" timeLoss="22.07" rerouteNo="0" devices="tripinfo_50" vType="DEFAULT_VEHTYPE" speedFactor="1.00" vaporized=""/>
    <tripinfo id="51" depart="106.00" departLane="E0_0" departPos="5.10" departSpeed="4.42" departDelay="48.00" arrival="210.00" arrivalLane="E3_0" arrivalPos="90.46" arrivalSpeed="29.30" duration="104.00" routeLength="1314.99" waitingTime="0.00" waitingCount="0" stopTime="0.00" timeLoss="20.69" rerouteNo="0" devices="tripinfo_51" vType="DEFAULT_VEHTYPE" speedFactor="0.99" vaporized=""/>
    <tripinfo id="8" depart="14.00" departLane="E0_0" departPos="5.10" departSpeed="20.00" departDelay="0.00" arrival="219.00" arrivalLane="E3_0" arrivalPos="90.46" arrivalSpeed="23.86" duration="205.00" routeLength="1317.38" waitingTime="92.00" waitingCount="3" stopTime="0.00" timeLoss="120.56" rerouteNo="0" devices="tripinfo_8" vType="DEFAULT_VEHTYPE" speedFactor="1.02" vaporized=""/>
    <tripinfo id="56" depart="121.00" departLane="E0_0" departPos="5.10" departSpeed="6.11" departDelay="61.00" arrival="224.00" arrivalLane="E3_0" arrivalPos="90.46" arrivalSpeed="27.61" duration="103.00" routeLength="1314.99" waitingTime="0.00" waitingCount="0" stopTime="0.00" timeLoss="14.41" rerouteNo="0" devices="tripinfo_56" vType="DEFAULT_VEHTYPE" speedFactor="0.93" vaporized=""/>
    <tripinfo id="62" depart="133.00" departLane="E0_0" departPos="5.10" departSpeed="4.64" departDelay="69.00" arrival="239.00" arrivalLane="E3_0" arrivalPos="90.46" arrivalSpeed="25.72" duration="106.00" routeLength="1314.99" waitingTime="0.00" waitingCount="0" stopTime="0.00" timeLoss="14.42" rerouteNo="0" devices="tripinfo_62" vType="DEFAULT_VEHTYPE" speedFactor="0.90" vaporized=""/>
    <tripinfo id="65" depart="140.00" departLane="E0_0" departPos="5.10" departSpeed="5.97" departDelay="72.00" arrival="240.00" arrivalLane="E3_0" arrivalPos="90.46" arrivalSpeed="28.36" duration="100.00" routeLength="1314.99" waitingTime="0.00" waitingCount="0" stopTime="0.00" timeLoss="16.56" rerouteNo="0" devices="tripinfo_65" vType="DEFAULT_VEHTYPE" speedFactor="0.98" vaporized=""/>
    <tripinfo id="66" depart="142.00" departLane="E0_0" departPos="5.10" departSpeed="5.46" departDelay="69.00" arrival="243.00" arrivalLane="E3_0" arrivalPos="90.46" arrivalSpeed="28.71" duration="101.00" routeLength="1314.99" waitingTime="0.00" waitingCount="0" stopTime="0.00" timeLoss="17.10" rerouteNo="0" devices="tripinfo_66" vType="DEFAULT_VEHTYPE" speedFactor="0.98" vaporized=""/>
    <tripinfo id="68" depart="146.00" departLane="E0_0" departPos="5.10" departSpeed="0.65" departDelay="70.00" arrival="250.00" arrivalLane="E3_0" arrivalPos="90.46" arrivalSpeed="27.29" duration="104.00" routeLength="1314.99" waitingTime="0.00" waitingCount="0" stopTime="0.00" timeLoss="17.18" rerouteNo="0" devices="tripinfo_68" vType="DEFAULT_VEHTYPE" speedFactor="0.94" vaporized=""/>
    <tripinfo id="75" depart="162.00" departLane="E0_0" departPos="5.10" departSpeed="6.16" departDelay="74.00" arrival="252.00" arrivalLane="E3_0" arrivalPos="90.46" arrivalSpeed="32.11" duration="90.00" routeLength="1314.99" waitingTime="0.00" waitingCount="0" stopTime="0.00" timeLoss="15.13" rerouteNo="0" devices="tripinfo_75" vType="DEFAULT_VEHTYPE" speedFactor="1.10" vaporized=""/>
    <tripinfo id="76" depart="164.00" departLane="E0_0" departPos="5.10" departSpeed="6.28" departDelay="74.00" arrival="254.00" arrivalLane="E3_0" arrivalPos="90.46" arrivalSpeed="33.21" duration="90.00" routeLength="1314.99" waitingTime="0.00" waitingCount="0" stopTime="0.00" timeLoss="17.35" rerouteNo="0" devices="tripinfo_76" vType="DEFAULT_VEHTYPE" speedFactor="1.14" vaporized=""/>
    <tripinfo id="11" depart="17.00" departLane="E0_0" departPos="5.10" departSpeed="12.04" departDelay="0.00" arrival="264.00" arrivalLane="E3_0" arrivalPos="90.46" arrivalSpeed="25.56" duration="247.00" routeLength="1317.38" waitingTime="128.00" waitingCount="4" stopTime="0.00" timeLoss="170.28" rerouteNo="0" devices="tripinfo_11" vType="DEFAULT_VEHTYPE" speedFactor="1.12" vaporized=""/>
    <tripinfo id="80" depart="172.00" departLane="E0_0" departPos="5.10" departSpeed="7.36" departDelay="77.00" arrival="266.00" arrivalLane="E3_0" arrivalPos="90.46" arrivalSpeed="30.22" duration="94.00" routeLength="1314.99" waitingTime="0.00" waitingCount="0" stopTime="0.00" timeLoss="17.25" rerouteNo="0" devices="tripinfo_80" vType="DEFAULT_VEHTYPE" speedFactor="1.08" vaporized=""/>
    <tripinfo id="83" depart="177.00" departLane="E0_0" departPos="5.10" departSpeed="4.03" departDelay="80.00" arrival="273.00" arrivalLane="E3_0" arrivalPos="90.46" arrivalSpeed="31.93" duration="96.00" routeLength="1314.99" waitingTime="0.00" waitingCount="0" stopTime="0.00" timeLoss="18.70" rerouteNo="0" devices="tripinfo_83" vType="DEFAULT_VEHTYPE" speedFactor="1.06" vaporized=""/>
    <tripinfo id="86" depart="184.00" departLane="E0_0" departPos="5.10" departSpeed="2.05" departDelay="82.00" arrival="283.00" arrivalLane="E3_0" arrivalPos="90.46" arrivalSpeed="30.50" duration="99.00" routeLength="1314.99" waitingTime="0.00" waitingCount="0" stopTime="0.00" timeLoss="19.28" rerouteNo="0" devices="tripinfo_86" vType="DEFAULT_VEHTYPE" speedFactor="1.02" vaporized=""/>
    <tripinfo id="89" depart="192.00" departLane="E0_0" departPos="5.10" departSpeed="5.91" departDelay="87.00" arrival="285.00" arrivalLane="E3_0" arrivalPos="90.46" arrivalSpeed="34.87" duration="93.00" routeLength="1314.99" waitingTime="0.00" waitingCount="0" stopTime="0.00" timeLoss="22.90" rerouteNo="0" devices="tripinfo_89" vType="DEFAULT_VEHTYPE" speedFactor="1.18" vaporized=""/>
    <tripinfo id="12" depart="20.00" departLane="E0_0" departPos="5.10" departSpeed="14.16" departDelay="0.00" arrival="295.00" arrivalLane="E3_0" arrivalPos="90.46" arrivalSpeed="25.28" duration="275.00" routeLength="1317.38" waitingTime="140.00" waitingCount="5" stopTime="0.00" timeLoss="179.72" rerouteNo="0" devices="tripinfo_12" vType="DEFAULT_VEHTYPE" speedFactor="0.90" vaporized=""/>
    <tripinfo id="92" depart="198.00" departLane="E0_0" departPos="5.10" departSpeed="4.96" departDelay="89.00" arrival="299.00" arrivalLane="E3_0" arrivalPos="90.46" arrivalSpeed="28.65" duration="101.00" routeLength="1314.99" waitingTime="0.00" waitingCount="0" stopTime="0.00" timeLoss="16.92" rerouteNo="0" devices="tripinfo_92" vType="DEFAULT_VEHTYPE" speedFactor="0.98" vaporized=""/>
    <tripinfo id="93" depart="200.00" departLane="E0_0" departPos="5.10" departSpeed="5.33" departDelay="86.00" arrival="305.00" arrivalLane="E3_0" arrivalPos="90.46" arrivalSpeed="26.98" duration="105.00" routeLength="1314.99" waitingTime="0.00" waitingCount="0" stopTime="0.00" timeLoss="17.58" rerouteNo="0" devices="tripinfo_93" vType="DEFAULT_VEHTYPE" speedFactor="0.94" vaporized=""/>
    <tripinfo id="94" depart="202.00" departLane="E0_0" departPos="5.10" departSpeed="4.52" departDelay="88.00" arrival="306.00" arrivalLane="E3_0" arrivalPos="90.46" arrivalSpeed="28.83" duration="104.00" routeLength="1314.99" waitingTime="0.00" waitingCount="0" stopTime="0.00" timeLoss="24.52" rerouteNo="0" devices="tripinfo_94" vType="DEFAULT_VEHTYPE" speedFactor="1.03" vaporized=""/>
    <tripinfo id="96" depart="206.00" departLane="E0_0" departPos="5.10" departSpeed="2.63" departDelay="89.00" arrival="318.00" arrivalLane="E3_0" arrivalPos="90.46" arrivalSpeed="26.20" duration="112.00" routeLength="1314.99" waitingTime="0.00" waitingCount="0" stopTime="0.00" timeLoss="19.35" rerouteNo="0" devices="tripinfo_96" vType="DEFAULT_VEHTYPE" speedFactor="0.89" vaporized=""/>
    <tripinfo id="100" depart="215.00" departLane="E0_0" departPos="5.10" departSpeed="5.41" departDelay="92.00" arrival="320.00" arrivalLane="E3_0" arrivalPos="90.46" arrivalSpeed="30.08" duration="105.00" routeLength="1314.99" waitingTime="0.00" waitingCount="0" stopTime="0.00" timeLoss="30.31" rerouteNo="0" devices="tripinfo_100" vType="DEFAULT_VEHTYPE" speedFactor="1.10" vaporized=""/>
    <tripinfo id="14" depart="22.00" departLane="E0_0" departPos="5.10" departSpeed="8.35" departDelay="0.00" arrival="328.00" arrivalLane="E3_0" arrivalPos="90.46" arrivalSpeed="23.74" duration="306.00" routeLength="1317.38" waitingTime="160.00" waitingCount="6" stopTime="0.00" timeLoss="223.78" rerouteNo="0" devices="tripinfo_14" vType="DEFAULT_VEHTYPE" speedFactor="1.04" vaporized=""/>
    <tripinfo id="20" depart="36.00" departLane="E0_0" departPos="5.10" departSpeed="3.08" departDelay="7.00" arrival="333.00" arrivalLane="E3_0" arrivalPos="90.46" arrivalSpeed="25.34" duration="297.00" routeLength="1317.38" waitingTime="150.00" waitingCount="6" stopTime="0.00" timeLoss="212.18" rerouteNo="0" devices="tripinfo_20" vType="DEFAULT_VEHTYPE" speedFactor="1.01" vaporized=""/>
    <tripinfo id="102" depart="219.00" departLane="E0_0" departPos="5.10" departSpeed="6.56" departDelay="95.00" arrival="338.00" arrivalLane="E3_0" arrivalPos="90.46" arrivalSpeed="23.99" duration="119.00" routeLength="1314.99" waitingTime="0.00" waitingCount="0" stopTime="0.00" timeLoss="20.38" rerouteNo="0" devices="tripinfo_102" vType="DEFAULT_VEHTYPE" speedFactor="0.84" vaporized=""/>
    <tripinfo id="104" depart="223.00" departLane="E0_0" departPos="5.10" departSpeed="6.34" departDelay="96.00" arrival="339.00" arrivalLane="E3_0" arrivalPos="90.46" arrivalSpeed="25.45" duration="116.00" routeLength="1314.99" waitingTime="0.00" waitingCount="0" stopTime="0.00" timeLoss="36.47" rerouteNo="0" devices="tripinfo_104" vType="DEFAULT_VEHTYPE" speedFactor="1.04" vaporized=""/>
    <tripinfo id="106" depart="227.00" departLane="E0_0" departPos="5.10" departSpeed="5.13" departDelay="100.00" arrival="340.00" arrivalLane="E3_0" arrivalPos="90.46" arrivalSpeed="25.03" duration="113.00" routeLength="1314.99" waitingTime="0.00" waitingCount="0" stopTime="0.00" timeLoss="27.18" rerouteNo="0" devices="tripinfo_106" vType="DEFAULT_VEHTYPE" speedFactor="0.95" vaporized=""/>
    <tripinfo id="110" depart="237.00" departLane="E0_0" departPos="5.10" departSpeed="1.86" departDelay="98.00" arrival="342.00" arrivalLane="E3_0" arrivalPos="90.46" arrivalSpeed="28.57" duration="105.00" routeLength="1314.99" waitingTime="0.00" waitingCount="0" stopTime="0.00" timeLoss="23.76" rerouteNo="0" devices="tripinfo_110" vType="DEFAULT_VEHTYPE" speedFactor="1.01" vaporized=""/>
    <tripinfo id="111" depart="240.00" departLane="E0_0" departPos="5.10" departSpeed="3.84" departDelay="100.00" arrival="343.00" arrivalLane="E3_0" arrivalPos="90.46" arrivalSpeed="28.54" duration="103.00" routeLength="1314.99" waitingTime="0.00" waitingCount="0" stopTime="0.00" timeLoss="30.24" rerouteNo="0" devices="tripinfo_111" vType="DEFAULT_VEHTYPE" speedFactor="1.13" vaporized=""/>
    <tripinfo id="113" depart="244.00" departLane="E0_0" departPos="5.10" departSpeed="2.67" departDelay="103.00" arrival="358.00" arrivalLane="E3_0" arrivalPos="90.46" arrivalSpeed="26.27" duration="114.00" routeLength="1314.99" waitingTime="0.00" waitingCount="0" stopTime="0.00" timeLoss="20.88" rerouteNo="0" devices="tripinfo_113" vType="DEFAULT_VEHTYPE" speedFactor="0.89" vaporized=""/>
    <tripinfo id="114" depart="247.00" departLane="E0_0" departPos="5.10" departSpeed="5.31" departDelay="104.00" arrival="359.00" arrivalLane="E3_0" arrivalPos="90.46" arrivalSpeed="27.97" duration="112.00" routeLength="1314.99" waitingTime="0.00" waitingCount="0" stopTime="0.00" timeLoss="26.76" rerouteNo="0" devices="tripinfo_114" vType="DEFAULT_VEHTYPE" speedFactor="0.97" vaporized=""/>
    <tripinfo id="115" depart="249.00" departLane="E0_0" departPos="5.10" departSpeed="4.18" departDelay="105.00" arrival="360.00" arrivalLane="E3_0" arrivalPos="90.46" arrivalSpeed="28.60" duration="111.00" routeLength="1314.99" waitingTime="0.00" waitingCount="0" stopTime="0.00" timeLoss="32.29" rerouteNo="0" devices="tripinfo_115" vType="DEFAULT_VEHTYPE" speedFactor="1.04" vaporized=""/>
    <tripinfo id="120" depart="262.00" departLane="E0_0" departPos="5.10" departSpeed="5.07" departDelay="110.00" arrival="363.00" arrivalLane="E3_0" arrivalPos="90.46" arrivalSpeed="29.16" duration="101.00" routeLength="1314.99" waitingTime="0.00" waitingCount="0" stopTime="0.00" timeLoss="19.37" rerouteNo="0" devices="tripinfo_120" vType="DEFAULT_VEHTYPE" speedFactor="1.01" vaporized=""/>
    <tripinfo id="122" depart="266.00" departLane="E0_0" departPos="5.10" departSpeed="5.25" departDelay="113.00" arrival="366.00" arrivalLane="E3_0" arrivalPos="90.46" arrivalSpeed="29.46" duration="100.00" routeLength="1314.99" waitingTime="0.00" waitingCount="0" stopTime="0.00" timeLoss="17.98" rerouteNo="0" devices="tripinfo_122" vType="DEFAULT_VEHTYPE" speedFactor="1.00" vaporized=""/>
    <tripinfo id="21" depart="39.00" departLane="E0_0" departPos="5.10" departSpeed="7.01" departDelay="8.00" arrival="374.00" arrivalLane="E3_0" arrivalPos="90.46" arrivalSpeed="24.23" duration="335.00" routeLength="1317.38" waitingTime="172.00" waitingCount="7" stopTime="0.00" timeLoss="236.61" rerouteNo="0" devices="tripinfo_21" vType="DEFAULT_VEHTYPE" speedFactor="0.87" vaporized=""/>
    <tripinfo id="22" depart="41.00" departLane="E0_0" departPos="5.10" departSpeed="8.26" departDelay="9.00" arrival="375.00" arrivalLane="E3_0" arrivalPos="90.46" arrivalSpeed="24.85" duration="334.00" routeLength="1317.38" waitingTime="168.00" waitingCount="7" stopTime="0.00" timeLoss="251.35" rerouteNo="0" devices="tripinfo_22" vType="DEFAULT_VEHTYPE" speedFactor="1.03" vaporized=""/>
    <tripinfo id="23" depart="42.00" departLane="E0_0" departPos="5.10" departSpeed="3.24" departDelay="10.00" arrival="377.00" arrivalLane="E3_0" arrivalPos="90.46" arrivalSpeed="23.54" duration="335.00" routeLength="1317.38" waitingTime="170.00" waitingCount="7" stopTime="0.00" timeLoss="259.50" rerouteNo="0" devices="tripinfo_23" vType="DEFAULT_VEHTYPE" speedFactor="1.13" vaporized=""/>
    <tripinfo id="24" depart="44.00" departLane="E0_0" departPos="5.10" departSpeed="0.86" departDelay="11.00" arrival="382.00" arrivalLane="E3_0" arrivalPos="90.46" arrivalSpeed="25.04" duration="338.00" routeLength="1317.38" waitingTime="162.00" waitingCount="7" stopTime="0.00" timeLoss="241.72" rerouteNo="0" devices="tripinfo_24" vType="DEFAULT_VEHTYPE" speedFactor="0.89" vaporized=""/>
    <tripinfo id="25" depart="48.00" departLane="E0_0" departPos="5.10" departSpeed="6.16" departDelay="15.00" arrival="383.00" arrivalLane="E3_0" arrivalPos="90.46" arrivalSpeed="24.13" duration="335.00" routeLength="1317.38" waitingTime="157.00" waitingCount="7" stopTime="0.00" timeLoss="261.05" rerouteNo="0" devices="tripinfo_25" vType="DEFAULT_VEHTYPE" speedFactor="1.15" vaporized=""/>
    <tripinfo id="27" depart="52.00" departLane="E0_0" departPos="5.10" departSpeed="5.85" departDelay="17.00" arrival="385.00" arrivalLane="E3_0" arrivalPos="90.46" arrivalSpeed="23.85" duration="333.00" routeLength="1317.38" waitingTime="154.00" waitingCount="7" stopTime="0.00" timeLoss="247.09" rerouteNo="0" devices="tripinfo_27" vType="DEFAULT_VEHTYPE" speedFactor="0.99" vaporized=""/>
    <tripinfo id="124" depart="270.00" departLane="E0_0" departPos="5.10" departSpeed="4.80" departDelay="116.00" arrival="392.00" arrivalLane="E3_0" arrivalPos="90.46" arrivalSpeed="23.80" duration="122.00" routeLength="1314.99" waitingTime="0.00" waitingCount="0" stopTime="0.00" timeLoss="20.15" rerouteNo="0" devices="tripinfo_124" vType="DEFAULT_VEHTYPE" speedFactor="0.80" vaporized=""/>
    <tripinfo id="126" depart="274.00" departLane="E0_0" departPos="5.10" departSpeed="1.35" departDelay="118.00" arrival="394.00" arrivalLane="E3_0" arrivalPos="90.46" arrivalSpeed="26.71" duration="120.00" routeLength="1314.99" waitingTime="0.00" waitingCount="0" stopTime="0.00" timeLoss="35.04" rerouteNo="0" devices="tripinfo_126" vType="DEFAULT_VEHTYPE" speedFactor="0.97" vaporized=""/>
    <tripinfo id="127" depart="277.00" departLane="E0_0" departPos="5.10" departSpeed="2.87" departDelay="121.00" arrival="395.00" arrivalLane="E3_0" arrivalPos="90.46" arrivalSpeed="25.69" duration="118.00" routeLength="1314.99" waitingTime="0.00" waitingCount="0" stopTime="0.00" timeLoss="28.42" rerouteNo="0" devices="tripinfo_127" vType="DEFAULT_VEHTYPE" speedFactor="0.91" vaporized=""/>
    <tripinfo id="128" depart="280.00" departLane="E0_0" departPos="5.10" departSpeed="6.32" departDelay="123.00" arrival="397.00" arrivalLane="E3_0" arrivalPos="90.46" arrivalSpeed="28.16" duration="117.00" routeLength="1314.99" waitingTime="0.00" waitingCount="0" stopTime="0.00" timeLoss="43.62" rerouteNo="0" devices="tripinfo_128" vType="DEFAULT_VEHTYPE" speedFactor="1.13" vaporized=""/>
    <tripinfo id="129" depart="282.00" departLane="E0_0" departPos="5.10" departSpeed="5.40" departDelay="125.00" arrival="398.00" arrivalLane="E3_0" arrivalPos="90.46" arrivalSpeed="27.37" duration="116.00" routeLength="1314.99" waitingTime="0.00" waitingCount="0" stopTime="0.00" timeLoss="32.21" rerouteNo="0" devices="tripinfo_129" vType="DEFAULT_VEHTYPE" speedFactor="0.98" vaporized=""/>