<?xml version="1.0" encoding="UTF-8"?>

<!-- generated on 2023-04-29 21:55:17 by Eclipse SUMO sumo Version 1.16.0
<configuration xmlns:xsi="http://www.w3.org/2001/XMLSchema-instance" xsi:noNamespaceSchemaLocation="http://sumo.dlr.de/xsd/sumoConfiguration.xsd">

    <input>
        <net-file value="C:\Users\Local_Man\Desktop\Stolen%20Music\school%20stuff%20for%20college\Semester%2015%20(UH%20Graduate%20School)\COSC%206364%20Nikolaos\SUMO_Project\COSC6364_Project\configurations\maps\4corners_neighborhoods.net.xml"/>
        <route-files value="./configurations/Rounds/4corners_neighborhoods.net.xml-test-4/Mesoscopic_DUE/002/Trips_File_002.rou.xml"/>
    </input>

    <output>
        <summary-output value="./configurations/Rounds/4corners_neighborhoods.net.xml-test-4/Mesoscopic_DUE/002/summary.xml"/>
        <tripinfo-output value="./configurations/Rounds/4corners_neighborhoods.net.xml-test-4/Mesoscopic_DUE/002/trips.trips.xml"/>
        <statistic-output value="./configurations/Rounds/4corners_neighborhoods.net.xml-test-4/Mesoscopic_DUE/002/stats_output.xml"/>
    </output>

    <time>
        <begin value="0"/>
    </time>

    <report>
        <log value="./configurations/Rounds/4corners_neighborhoods.net.xml-test-4/Mesoscopic_DUE/002/log.sumo.log"/>
        <no-step-log value="true"/>
    </report>

    <gui_only>
        <quit-on-end value="true"/>
    </gui_only>

</configuration>
-->

<tripinfos xmlns:xsi="http://www.w3.org/2001/XMLSchema-instance" xsi:noNamespaceSchemaLocation="http://sumo.dlr.de/xsd/tripinfo_file.xsd">
    <tripinfo id="4" depart="3.00" departLane="597602753#0_0" departPos="5.10" departSpeed="0.00" departDelay="0.00" arrival="77.00" arrivalLane="-105681660#20_0" arrivalPos="806.12" arrivalSpeed="21.54" duration="74.00" routeLength="1387.70" waitingTime="0.00" waitingCount="0" stopTime="0.00" timeLoss="10.72" rerouteNo="0" devices="tripinfo_4" vType="DEFAULT_VEHTYPE" speedFactor="1.01" vaporized=""/>
    <tripinfo id="3" depart="2.00" departLane="918280985_0" departPos="5.10" departSpeed="0.00" departDelay="0.00" arrival="88.00" arrivalLane="15374898#0-AddedOffRampEdge_0" arrivalPos="100.00" arrivalSpeed="25.21" duration="86.00" routeLength="996.81" waitingTime="28.00" waitingCount="1" stopTime="0.00" timeLoss="43.71" rerouteNo="0" devices="tripinfo_3" vType="DEFAULT_VEHTYPE" speedFactor="0.94" vaporized=""/>
    <tripinfo id="9" depart="10.00" departLane="918280985_0" departPos="5.10" departSpeed="0.00" departDelay="2.00" arrival="95.00" arrivalLane="15374898#0-AddedOffRampEdge_0" arrivalPos="100.00" arrivalSpeed="24.14" duration="85.00" routeLength="996.81" waitingTime="23.00" waitingCount="1" stopTime="0.00" timeLoss="40.50" rerouteNo="0" devices="tripinfo_9" vType="DEFAULT_VEHTYPE" speedFactor="0.89" vaporized=""/>
    <tripinfo id="2" depart="0.00" departLane="597602756#0_0" departPos="5.10" departSpeed="0.00" departDelay="0.00" arrival="98.00" arrivalLane="918280984_0" arrivalPos="38.78" arrivalSpeed="13.90" duration="98.00" routeLength="1737.87" waitingTime="0.00" waitingCount="0" stopTime="0.00" timeLoss="23.28" rerouteNo="0" devices="tripinfo_2" vType="DEFAULT_VEHTYPE" speedFactor="1.06" vaporized=""/>
    <tripinfo id="39" depart="48.00" departLane="918280985_0" departPos="5.10" departSpeed="0.00" departDelay="0.00" arrival="98.00" arrivalLane="15374898#0-AddedOffRampEdge_0" arrivalPos="100.00" arrivalSpeed="31.69" duration="50.00" routeLength="996.81" waitingTime="0.00" waitingCount="0" stopTime="0.00" timeLoss="16.26" rerouteNo="0" devices="tripinfo_39" vType="DEFAULT_VEHTYPE" speedFactor="1.18" vaporized=""/>
    <tripinfo id="14" depart="15.00" departLane="-260998164#3_0" departPos="5.10" departSpeed="0.00" departDelay="3.00" arrival="104.00" arrivalLane="-318908683#1_0" arrivalPos="71.22" arrivalSpeed="13.37" duration="89.00" routeLength="955.07" waitingTime="38.00" waitingCount="1" stopTime="0.00" timeLoss="52.33" rerouteNo="0" devices="tripinfo_14" vType="DEFAULT_VEHTYPE" speedFactor="1.05" vaporized=""/>
    <tripinfo id="5" depart="3.00" departLane="422688973_0" departPos="5.10" departSpeed="0.00" departDelay="0.00" arrival="105.00" arrivalLane="-597602753#1_0" arrivalPos="143.59" arrivalSpeed="23.35" duration="102.00" routeLength="1114.81" waitingTime="17.00" waitingCount="2" stopTime="0.00" timeLoss="41.52" rerouteNo="0" devices="tripinfo_5" vType="DEFAULT_VEHTYPE" speedFactor="1.08" vaporized=""/>
    <tripinfo id="28" depart="30.00" departLane="-260998164#3_0" departPos="5.10" departSpeed="0.00" departDelay="0.00" arrival="107.00" arrivalLane="-318908683#1_0" arrivalPos="71.22" arrivalSpeed="11.61" duration="77.00" routeLength="955.07" waitingTime="21.00" waitingCount="1" stopTime="0.00" timeLoss="34.94" rerouteNo="0" devices="tripinfo_28" vType="DEFAULT_VEHTYPE" speedFactor="0.92" vaporized=""/>
    <tripinfo id="24" depart="23.00" departLane="422688973_0" departPos="5.10" departSpeed="0.00" departDelay="0.00" arrival="111.00" arrivalLane="-597602753#1_0" arrivalPos="143.59" arrivalSpeed="20.86" duration="88.00" routeLength="1114.81" waitingTime="3.00" waitingCount="1" stopTime="0.00" timeLoss="20.48" rerouteNo="0" devices="tripinfo_24" vType="DEFAULT_VEHTYPE" speedFactor="0.97" vaporized=""/>
    <tripinfo id="15" depart="13.00" departLane="105681660#12_0" departPos="5.10" departSpeed="0.00" departDelay="0.00" arrival="119.00" arrivalLane="-597602756#0_0" arrivalPos="325.99" arrivalSpeed="24.58" duration="106.00" routeLength="1877.95" waitingTime="1.00" waitingCount="1" stopTime="0.00" timeLoss="28.39" rerouteNo="0" devices="tripinfo_15" vType="DEFAULT_VEHTYPE" speedFactor="1.12" vaporized=""/>
    <tripinfo id="7" depart="7.00" departLane="918280985_0" departPos="5.10" departSpeed="0.00" departDelay="0.00" arrival="125.00" arrivalLane="-318908683#1_0" arrivalPos="71.22" arrivalSpeed="10.74" duration="118.00" routeLength="674.50" waitingTime="64.00" waitingCount="2" stopTime="0.00" timeLoss="82.02" rerouteNo="0" devices="tripinfo_7" vType="DEFAULT_VEHTYPE" speedFactor="0.83" vaporized=""/>
    <tripinfo id="27" depart="30.00" departLane="318908683#0_0" departPos="5.10" departSpeed="0.00" departDelay="0.00" arrival="125.00" arrivalLane="-597602753#1_0" arrivalPos="143.59" arrivalSpeed="18.56" duration="95.00" routeLength="1208.14" waitingTime="11.00" waitingCount="1" stopTime="0.00" timeLoss="29.83" rerouteNo="0" devices="tripinfo_27" vType="DEFAULT_VEHTYPE" speedFactor="0.87" vaporized=""/>
    <tripinfo id="20" depart="19.00" departLane="422688973_0" departPos="5.10" departSpeed="0.00" departDelay="0.00" arrival="127.00" arrivalLane="-318908683#1_0" arrivalPos="71.22" arrivalSpeed="12.31" duration="108.00" routeLength="684.23" waitingTime="56.00" waitingCount="2" stopTime="0.00" timeLoss="77.99" rerouteNo="0" devices="tripinfo_20" vType="DEFAULT_VEHTYPE" speedFactor="0.94" vaporized=""/>
    <tripinfo id="35" depart="44.00" departLane="422688973_0" departPos="5.10" departSpeed="0.00" departDelay="1.00" arrival="129.00" arrivalLane="-318908683#1_0" arrivalPos="71.22" arrivalSpeed="15.08" duration="85.00" routeLength="684.23" waitingTime="30.00" waitingCount="2" stopTime="0.00" timeLoss="60.72" rerouteNo="0" devices="tripinfo_35" vType="DEFAULT_VEHTYPE" speedFactor="1.17" vaporized=""/>
    <tripinfo id="36" depart="44.00" departLane="105681660#12_0" departPos="5.10" departSpeed="0.00" departDelay="0.00" arrival="137.00" arrivalLane="-597602753#1_0" arrivalPos="143.59" arrivalSpeed="21.66" duration="93.00" routeLength="1380.56" waitingTime="14.00" waitingCount="1" stopTime="0.00" timeLoss="29.00" rerouteNo="0" devices="tripinfo_36" vType="DEFAULT_VEHTYPE" speedFactor="0.99" vaporized=""/>
    <tripinfo id="42" depart="52.00" departLane="597602756#0_0" departPos="5.10" departSpeed="0.00" departDelay="0.00" arrival="140.00" arrivalLane="260998164#0_0" arrivalPos="257.55" arrivalSpeed="27.83" duration="88.00" routeLength="1239.91" waitingTime="0.00" waitingCount="0" stopTime="0.00" timeLoss="17.33" rerouteNo="0" devices="tripinfo_42" vType="DEFAULT_VEHTYPE" speedFactor="1.03" vaporized=""/>
    <tripinfo id="47" depart="56.00" departLane="-260998164#3_0" departPos="5.10" departSpeed="0.00" departDelay="0.00" arrival="140.00" arrivalLane="-597602756#0_0" arrivalPos="325.99" arrivalSpeed="23.39" duration="84.00" routeLength="1231.40" waitingTime="0.00" waitingCount="0" stopTime="0.00" timeLoss="16.88" rerouteNo="0" devices="tripinfo_47" vType="DEFAULT_VEHTYPE" speedFactor="1.09" vaporized=""/>
    <tripinfo id="8" depart="8.00" departLane="105681660#12_0" departPos="5.10" departSpeed="0.00" departDelay="0.00" arrival="142.00" arrivalLane="260998164#0_0" arrivalPos="257.55" arrivalSpeed="28.04" duration="134.00" routeLength="2169.41" waitingTime="2.00" waitingCount="1" stopTime="0.00" timeLoss="31.97" rerouteNo="0" devices="tripinfo_8" vType="DEFAULT_VEHTYPE" speedFactor="1.05" vaporized=""/>
    <tripinfo id="63" depart="72.00" departLane="918280985_0" departPos="5.10" departSpeed="0.00" departDelay="0.00" arrival="145.00" arrivalLane="15374898#0-AddedOffRampEdge_0" arrivalPos="100.00" arrivalSpeed="30.89" duration="73.00" routeLength="996.81" waitingTime="20.00" waitingCount="1" stopTime="0.00" timeLoss="38.46" rerouteNo="0" devices="tripinfo_63" vType="DEFAULT_VEHTYPE" speedFactor="1.12" vaporized=""/>
    <tripinfo id="48" depart="59.00" departLane="597602753#0_0" departPos="5.10" departSpeed="0.00" departDelay="0.00" arrival="146.00" arrivalLane="-597602756#0_0" arrivalPos="325.99" arrivalSpeed="21.33" duration="87.00" routeLength="1646.04" waitingTime="0.00" waitingCount="0" stopTime="0.00" timeLoss="11.00" rerouteNo="0" devices="tripinfo_48" vType="DEFAULT_VEHTYPE" speedFactor="1.00" vaporized=""/>
    <tripinfo id="81" depart="92.00" departLane="918280985_0" departPos="5.10" departSpeed="0.00" departDelay="4.00" arrival="146.00" arrivalLane="-318908683#1_0" arrivalPos="71.22" arrivalSpeed="14.79" duration="54.00" routeLength="674.50" waitingTime="9.00" waitingCount="1" stopTime="0.00" timeLoss="25.65" rerouteNo="0" devices="tripinfo_81" vType="DEFAULT_VEHTYPE" speedFactor="1.09" vaporized=""/>
    <tripinfo id="23" depart="21.00" departLane="918280985_0" departPos="5.10" departSpeed="0.00" departDelay="0.00" arrival="147.00" arrivalLane="-597602753#1_0" arrivalPos="143.59" arrivalSpeed="22.24" duration="126.00" routeLength="1123.56" waitingTime="31.00" waitingCount="3" stopTime="0.00" timeLoss="59.65" rerouteNo="0" devices="tripinfo_23" vType="DEFAULT_VEHTYPE" speedFactor="1.01" vaporized=""/>
    <tripinfo id="32" depart="38.00" departLane="-260998164#3_0" departPos="5.10" departSpeed="0.00" departDelay="0.00" arrival="150.00" arrivalLane="-597602753#1_0" arrivalPos="143.59" arrivalSpeed="26.04" duration="112.00" routeLength="1979.71" waitingTime="3.00" waitingCount="1" stopTime="0.00" timeLoss="40.85" rerouteNo="0" devices="tripinfo_32" vType="DEFAULT_VEHTYPE" speedFactor="1.18" vaporized=""/>
    <tripinfo id="17" depart="16.00" departLane="918280985_0" departPos="5.10" departSpeed="0.00" departDelay="0.00" arrival="151.00" arrivalLane="-105681660#20_0" arrivalPos="806.12" arrivalSpeed="20.25" duration="135.00" routeLength="1360.98" waitingTime="31.00" waitingCount="2" stopTime="0.00" timeLoss="51.96" rerouteNo="0" devices="tripinfo_17" vType="DEFAULT_VEHTYPE" speedFactor="0.93" vaporized=""/>
    <tripinfo id="75" depart="83.00" departLane="918280985_0" departPos="5.10" departSpeed="0.00" departDelay="0.00" arrival="153.00" arrivalLane="15374898#0-AddedOffRampEdge_0" arrivalPos="100.00" arrivalSpeed="28.65" duration="70.00" routeLength="996.81" waitingTime="13.00" waitingCount="1" stopTime="0.00" timeLoss="32.32" rerouteNo="0" devices="tripinfo_75" vType="DEFAULT_VEHTYPE" speedFactor="1.06" vaporized=""/>
    <tripinfo id="10" depart="8.00" departLane="-260998164#3_0" departPos="5.10" departSpeed="0.00" departDelay="0.00" arrival="154.00" arrivalLane="422688976#1_0" arrivalPos="294.40" arrivalSpeed="26.04" duration="146.00" routeLength="1712.42" waitingTime="53.00" waitingCount="2" stopTime="0.00" timeLoss="78.77" rerouteNo="0" devices="tripinfo_10" vType="DEFAULT_VEHTYPE" speedFactor="0.94" vaporized=""/>
    <tripinfo id="11" depart="12.00" departLane="597602756#0_0" departPos="5.10" departSpeed="0.00" departDelay="0.00" arrival="155.00" arrivalLane="422688976#1_1" arrivalPos="294.40" arrivalSpeed="22.56" duration="143.00" routeLength="1985.14" waitingTime="14.00" waitingCount="2" stopTime="0.00" timeLoss="44.10" rerouteNo="0" devices="tripinfo_11" vType="DEFAULT_VEHTYPE" speedFactor="0.86" vaporized=""/>
    <tripinfo id="26" depart="29.00" departLane="422685671#2_0" departPos="5.10" departSpeed="0.00" departDelay="0.00" arrival="159.00" arrivalLane="422688976#1_1" arrivalPos="294.40" arrivalSpeed="22.81" duration="130.00" routeLength="1317.05" waitingTime="48.00" waitingCount="2" stopTime="0.00" timeLoss="70.42" rerouteNo="0" devices="tripinfo_26" vType="DEFAULT_VEHTYPE" speedFactor="0.83" vaporized=""/>
    <tripinfo id="33" depart="41.00" departLane="422685671#2_0" departPos="5.10" departSpeed="0.00" departDelay="0.00" arrival="160.00" arrivalLane="-597602753#1_0" arrivalPos="143.59" arrivalSpeed="25.28" duration="119.00" routeLength="1584.34" waitingTime="30.00" waitingCount="1" stopTime="0.00" timeLoss="58.92" rerouteNo="0" devices="tripinfo_33" vType="DEFAULT_VEHTYPE" speedFactor="1.15" vaporized=""/>
    <tripinfo id="64" depart="73.00" departLane="-260998164#3_0" departPos="5.10" departSpeed="0.00" departDelay="0.00" arrival="161.00" arrivalLane="-597602756#0_0" arrivalPos="325.99" arrivalSpeed="22.11" duration="88.00" routeLength="1231.40" waitingTime="0.00" waitingCount="0" stopTime="0.00" timeLoss="16.35" rerouteNo="0" devices="tripinfo_64" vType="DEFAULT_VEHTYPE" speedFactor="1.02" vaporized=""/>
    <tripinfo id="12" depart="12.00" departLane="-260998164#3_0" departPos="5.10" departSpeed="0.00" departDelay="0.00" arrival="163.00" arrivalLane="918280984_0" arrivalPos="38.78" arrivalSpeed="15.04" duration="151.00" routeLength="1465.15" waitingTime="70.00" waitingCount="2" stopTime="0.00" timeLoss="97.89" rerouteNo="0" devices="tripinfo_12" vType="DEFAULT_VEHTYPE" speedFactor="1.09" vaporized=""/>
    <tripinfo id="16" depart="16.00" departLane="105681660#12_0" departPos="5.10" departSpeed="0.00" departDelay="0.00" arrival="164.00" arrivalLane="260998164#0_0" arrivalPos="257.55" arrivalSpeed="27.27" duration="148.00" routeLength="2169.41" waitingTime="12.00" waitingCount="1" stopTime="0.00" timeLoss="40.73" rerouteNo="0" devices="tripinfo_16" vType="DEFAULT_VEHTYPE" speedFactor="0.99" vaporized=""/>
    <tripinfo id="29" depart="33.00" departLane="-260998164#3_0" departPos="5.10" departSpeed="0.00" departDelay="1.00" arrival="164.00" arrivalLane="-105681660#20_0" arrivalPos="806.12" arrivalSpeed="19.82" duration="131.00" routeLength="2208.42" waitingTime="3.00" waitingCount="1" stopTime="0.00" timeLoss="31.98" rerouteNo="0" devices="tripinfo_29" vType="DEFAULT_VEHTYPE" speedFactor="0.95" vaporized=""/>
    <tripinfo id="57" depart="69.00" departLane="422685671#2_0" departPos="5.10" departSpeed="0.00" departDelay="0.00" arrival="165.00" arrivalLane="918280984_0" arrivalPos="38.78" arrivalSpeed="13.42" duration="96.00" routeLength="1069.78" waitingTime="21.00" waitingCount="3" stopTime="0.00" timeLoss="51.80" rerouteNo="0" devices="tripinfo_57" vType="DEFAULT_VEHTYPE" speedFactor="1.00" vaporized=""/>
    <tripinfo id="72" depart="81.00" departLane="318908683#0_0" departPos="5.10" departSpeed="0.00" departDelay="3.00" arrival="166.00" arrivalLane="260998164#0_0" arrivalPos="257.55" arrivalSpeed="27.80" duration="85.00" routeLength="939.98" waitingTime="34.00" waitingCount="1" stopTime="0.00" timeLoss="48.28" rerouteNo="0" devices="tripinfo_72" vType="DEFAULT_VEHTYPE" speedFactor="1.02" vaporized=""/>
    <tripinfo id="53" depart="63.00" departLane="422685671#2_0" departPos="5.10" departSpeed="0.00" departDelay="0.00" arrival="171.00" arrivalLane="-597602756#0_0" arrivalPos="325.99" arrivalSpeed="24.98" duration="108.00" routeLength="1778.05" waitingTime="8.00" waitingCount="1" stopTime="0.00" timeLoss="40.99" rerouteNo="0" devices="tripinfo_53" vType="DEFAULT_VEHTYPE" speedFactor="1.17" vaporized=""/>
    <tripinfo id="13" depart="12.00" departLane="422685671#2_0" departPos="5.10" departSpeed="0.00" departDelay="0.00" arrival="173.00" arrivalLane="-105681660#20_0" arrivalPos="806.12" arrivalSpeed="21.67" duration="161.00" routeLength="1813.05" waitingTime="53.00" waitingCount="1" stopTime="0.00" timeLoss="82.41" rerouteNo="0" devices="tripinfo_13" vType="DEFAULT_VEHTYPE" speedFactor="1.03" vaporized=""/>
    <tripinfo id="82" depart="89.00" departLane="105681660#12_0" departPos="5.10" departSpeed="0.00" departDelay="0.00" arrival="173.00" arrivalLane="-597602753#1_0" arrivalPos="143.59" arrivalSpeed="22.93" duration="84.00" routeLength="1380.56" waitingTime="7.00" waitingCount="1" stopTime="0.00" timeLoss="21.90" rerouteNo="0" devices="tripinfo_82" vType="DEFAULT_VEHTYPE" speedFactor="1.03" vaporized=""/>
    <tripinfo id="49" depart="62.00" departLane="597602753#0_0" departPos="5.10" departSpeed="0.00" departDelay="3.00" arrival="183.00" arrivalLane="918280984_0" arrivalPos="38.78" arrivalSpeed="11.28" duration="121.00" routeLength="1061.00" waitingTime="23.00" waitingCount="1" stopTime="0.00" timeLoss="40.37" rerouteNo="0" devices="tripinfo_49" vType="DEFAULT_VEHTYPE" speedFactor="0.90" vaporized=""/>
    <tripinfo id="56" depart="68.00" departLane="105681660#12_0" departPos="5.10" departSpeed="0.00" departDelay="0.00" arrival="184.00" arrivalLane="918280984_0" arrivalPos="38.78" arrivalSpeed="13.77" duration="116.00" routeLength="1405.13" waitingTime="19.00" waitingCount="1" stopTime="0.00" timeLoss="35.33" rerouteNo="0" devices="tripinfo_56" vType="DEFAULT_VEHTYPE" speedFactor="1.00" vaporized=""/>
    <tripinfo id="61" depart="72.00" departLane="422685671#2_0" departPos="5.10" departSpeed="0.00" departDelay="0.00" arrival="184.00" arrivalLane="-597602756#0_0" arrivalPos="325.99" arrivalSpeed="21.09" duration="112.00" routeLength="1778.05" waitingTime="0.00" waitingCount="0" stopTime="0.00" timeLoss="30.18" rerouteNo="0" devices="tripinfo_61" vType="DEFAULT_VEHTYPE" speedFactor="0.97" vaporized=""/>
    <tripinfo id="45" depart="53.00" departLane="422688973_0" departPos="5.10" departSpeed="0.00" departDelay="0.00" arrival="185.00" arrivalLane="260998164#0_0" arrivalPos="257.55" arrivalSpeed="28.15" duration="132.00" routeLength="1470.06" waitingTime="50.00" waitingCount="2" stopTime="0.00" timeLoss="79.88" rerouteNo="0" devices="tripinfo_45" vType="DEFAULT_VEHTYPE" speedFactor="1.04" vaporized=""/>
    <tripinfo id="6" depart="6.00" departLane="597602753#0_0" departPos="5.10" departSpeed="0.00" departDelay="2.00" arrival="189.00" arrivalLane="15374898#0-AddedOffRampEdge_1" arrivalPos="100.00" arrivalSpeed="28.24" duration="183.00" routeLength="1981.16" waitingTime="55.00" waitingCount="1" stopTime="0.00" timeLoss="89.24" rerouteNo="0" devices="tripinfo_6" vType="DEFAULT_VEHTYPE" speedFactor="1.03" vaporized=""/>
    <tripinfo id="50" depart="60.00" departLane="-260998164#3_0" departPos="5.10" departSpeed="0.00" departDelay="0.00" arrival="189.00" arrivalLane="15374898#0-AddedOffRampEdge_0" arrivalPos="100.00" arrivalSpeed="23.75" duration="129.00" routeLength="1332.80" waitingTime="57.00" waitingCount="1" stopTime="0.00" timeLoss="74.08" rerouteNo="0" devices="tripinfo_50" vType="DEFAULT_VEHTYPE" speedFactor="0.88" vaporized=""/>
    <tripinfo id="54" depart="64.00" departLane="-260998164#3_0" departPos="5.10" departSpeed="0.00" departDelay="0.00" arrival="191.00" arrivalLane="15374898#0-AddedOffRampEdge_0" arrivalPos="100.00" arrivalSpeed="28.20" duration="127.00" routeLength="1332.80" waitingTime="58.00" waitingCount="1" stopTime="0.00" timeLoss="79.17" rerouteNo="0" devices="tripinfo_54" vType="DEFAULT_VEHTYPE" speedFactor="1.02" vaporized=""/>
    <tripinfo id="30" depart="35.00" departLane="105681660#12_0" departPos="5.10" departSpeed="0.00" departDelay="0.00" arrival="193.00" arrivalLane="-318908683#1_0" arrivalPos="71.22" arrivalSpeed="15.40" duration="158.00" routeLength="1835.34" waitingTime="28.00" waitingCount="1" stopTime="0.00" timeLoss="71.73" rerouteNo="0" devices="tripinfo_30" vType="DEFAULT_VEHTYPE" speedFactor="1.13" vaporized=""/>
    <tripinfo id="21" depart="20.00" departLane="597602753#0_0" departPos="5.10" departSpeed="0.00" departDelay="0.00" arrival="194.00" arrivalLane="15374898#0-AddedOffRampEdge_1" arrivalPos="100.00" arrivalSpeed="32.11" duration="174.00" routeLength="1981.16" waitingTime="43.00" waitingCount="2" stopTime="0.00" timeLoss="90.42" rerouteNo="0" devices="tripinfo_21" vType="DEFAULT_VEHTYPE" speedFactor="1.16" vaporized=""/>
    <tripinfo id="51" depart="61.00" departLane="422688973_0" departPos="5.10" departSpeed="0.00" departDelay="0.00" arrival="194.00" arrivalLane="260998164#0_0" arrivalPos="257.55" arrivalSpeed="22.65" duration="133.00" routeLength="1470.06" waitingTime="48.00" waitingCount="1" stopTime="0.00" timeLoss="68.40" rerouteNo="0" devices="tripinfo_51" vType="DEFAULT_VEHTYPE" speedFactor="0.85" vaporized=""/>
    <tripinfo id="71" depart="78.00" departLane="918280985_0" departPos="5.10" departSpeed="0.00" departDelay="0.00" arrival="195.00" arrivalLane="260998164#0_0" arrivalPos="257.55" arrivalSpeed="25.91" duration="117.00" routeLength="1460.33" waitingTime="30.00" waitingCount="2" stopTime="0.00" timeLoss="61.58" rerouteNo="0" devices="tripinfo_71" vType="DEFAULT_VEHTYPE" speedFactor="1.02" vaporized=""/>
    <tripinfo id="59" depart="71.00" departLane="105681660#12_0" departPos="5.10" departSpeed="0.00" departDelay="0.00" arrival="196.00" arrivalLane="422688976#1_0" arrivalPos="294.40" arrivalSpeed="31.50" duration="125.00" routeLength="1630.66" waitingTime="17.00" waitingCount="1" stopTime="0.00" timeLoss="48.50" rerouteNo="0" devices="tripinfo_59" vType="DEFAULT_VEHTYPE" speedFactor="1.14" vaporized=""/>
    <tripinfo id="108" depart="119.00" departLane="-260998164#3_0" departPos="5.10" departSpeed="0.00" departDelay="2.00" arrival="196.00" arrivalLane="-318908683#1_0" arrivalPos="71.22" arrivalSpeed="13.91" duration="77.00" routeLength="955.07" waitingTime="23.00" waitingCount="1" stopTime="0.00" timeLoss="38.25" rerouteNo="0" devices="tripinfo_108" vType="DEFAULT_VEHTYPE" speedFactor="1.01" vaporized=""/>
    <tripinfo id="92" depart="103.00" departLane="-260998164#3_0" departPos="5.10" departSpeed="0.00" departDelay="0.00" arrival="197.00" arrivalLane="15374898#0-AddedOffRampEdge_1" arrivalPos="100.00" arrivalSpeed="27.10" duration="94.00" routeLength="1332.80" waitingTime="28.00" waitingCount="1" stopTime="0.00" timeLoss="46.59" rerouteNo="0" devices="tripinfo_92" vType="DEFAULT_VEHTYPE" speedFactor="1.02" vaporized=""/>
    <tripinfo id="18" depart="17.00" departLane="597602756#0_0" departPos="5.10" departSpeed="0.00" departDelay="0.00" arrival="199.00" arrivalLane="-318908683#1_0" arrivalPos="71.22" arrivalSpeed="11.35" duration="182.00" routeLength="1382.88" waitingTime="71.00" waitingCount="2" stopTime="0.00" timeLoss="95.53" rerouteNo="0" devices="tripinfo_18" vType="DEFAULT_VEHTYPE" speedFactor="0.88" vaporized=""/>
    <tripinfo id="60" depart="71.00" departLane="318908683#0_0" departPos="5.10" departSpeed="0.00" departDelay="0.00" arrival="200.00" arrivalLane="-597602756#0_0" arrivalPos="325.99" arrivalSpeed="21.88" duration="129.00" routeLength="1401.85" waitingTime="38.00" waitingCount="1" stopTime="0.00" timeLoss="64.27" rerouteNo="0" devices="tripinfo_60" vType="DEFAULT_VEHTYPE" speedFactor="1.02" vaporized=""/>
    <tripinfo id="129" depart="148.00" departLane="-260998164#3_0" departPos="5.10" departSpeed="0.00" departDelay="1.00" arrival="205.00" arrivalLane="-318908683#1_0" arrivalPos="71.22" arrivalSpeed="10.78" duration="57.00" routeLength="955.07" waitingTime="0.00" waitingCount="0" stopTime="0.00" timeLoss="8.93" rerouteNo="0" devices="tripinfo_129" vType="DEFAULT_VEHTYPE" speedFactor="0.82" vaporized=""/>
    <tripinfo id="102" depart="113.00" departLane="597602756#0_0" departPos="5.10" departSpeed="0.00" departDelay="2.00" arrival="206.00" arrivalLane="-318908683#1_0" arrivalPos="71.22" arrivalSpeed="14.25" duration="93.00" routeLength="1382.88" waitingTime="0.00" waitingCount="0" stopTime="0.00" timeLoss="21.83" rerouteNo="0" devices="tripinfo_102" vType="DEFAULT_VEHTYPE" speedFactor="1.06" vaporized=""/>
    <tripinfo id="96" depart="125.00" departLane="318908683#0_0" departPos="5.10" departSpeed="0.00" departDelay="17.00" arrival="207.00" arrivalLane="422688976#1_0" arrivalPos="294.40" arrivalSpeed="29.01" duration="82.00" routeLength="940.85" waitingTime="24.00" waitingCount="1" stopTime="0.00" timeLoss="47.92" rerouteNo="0" devices="tripinfo_96" vType="DEFAULT_VEHTYPE" speedFactor="1.09" vaporized=""/>
    <tripinfo id="74" depart="84.00" departLane="318908683#0_0" departPos="5.10" departSpeed="0.00" departDelay="2.00" arrival="208.00" arrivalLane="422688976#1_0" arrivalPos="294.40" arrivalSpeed="25.48" duration="124.00" routeLength="940.85" waitingTime="58.00" waitingCount="2" stopTime="0.00" timeLoss="84.88" rerouteNo="0" devices="tripinfo_74" vType="DEFAULT_VEHTYPE" speedFactor="0.94" vaporized=""/>
    <tripinfo id="119" depart="138.00" departLane="105681660#12_0" departPos="5.10" departSpeed="0.00" departDelay="0.00" arrival="212.00" arrivalLane="-597602753#1_0" arrivalPos="143.59" arrivalSpeed="22.24" duration="74.00" routeLength="1380.56" waitingTime="0.00" waitingCount="0" stopTime="0.00" timeLoss="10.70" rerouteNo="0" devices="tripinfo_119" vType="DEFAULT_VEHTYPE" speedFactor="1.00" vaporized=""/>
    <tripinfo id="68" depart="78.00" departLane="318908683#0_0" departPos="5.10" departSpeed="0.00" departDelay="2.00" arrival="213.00" arrivalLane="-597602756#0_0" arrivalPos="325.99" arrivalSpeed="19.59" duration="135.00" routeLength="1401.85" waitingTime="35.00" waitingCount="1" stopTime="0.00" timeLoss="61.05" rerouteNo="0" devices="tripinfo_68" vType="DEFAULT_VEHTYPE" speedFactor="0.91" vaporized=""/>
    <tripinfo id="41" depart="51.00" departLane="-260998164#3_0" departPos="5.10" departSpeed="0.00" departDelay="0.00" arrival="216.00" arrivalLane="918280984_0" arrivalPos="38.78" arrivalSpeed="11.74" duration="165.00" routeLength="1465.15" waitingTime="79.00" waitingCount="2" stopTime="0.00" timeLoss="101.81" rerouteNo="0" devices="tripinfo_41" vType="DEFAULT_VEHTYPE" speedFactor="0.90" vaporized=""/>
    <tripinfo id="58" depart="70.00" departLane="-260998164#3_0" departPos="5.10" departSpeed="0.00" departDelay="0.00" arrival="218.00" arrivalLane="918280984_0" arrivalPos="38.78" arrivalSpeed="12.14" duration="148.00" routeLength="1465.15" waitingTime="57.00" waitingCount="2" stopTime="0.00" timeLoss="84.53" rerouteNo="0" devices="tripinfo_58" vType="DEFAULT_VEHTYPE" speedFactor="0.90" vaporized=""/>
    <tripinfo id="70" depart="76.00" departLane="422688973_0" departPos="5.10" departSpeed="0.00" departDelay="0.00" arrival="218.00" arrivalLane="-318908683#1_0" arrivalPos="71.22" arrivalSpeed="13.45" duration="142.00" routeLength="684.23" waitingTime="95.00" waitingCount="2" stopTime="0.00" timeLoss="114.56" rerouteNo="0" devices="tripinfo_70" vType="DEFAULT_VEHTYPE" speedFactor="1.04" vaporized=""/>
    <tripinfo id="37" depart="45.00" departLane="918280985_0" departPos="5.10" departSpeed="0.00" departDelay="0.00" arrival="220.00" arrivalLane="-597602753#1_0" arrivalPos="143.59" arrivalSpeed="22.60" duration="175.00" routeLength="1123.56" waitingTime="82.00" waitingCount="3" stopTime="0.00" timeLoss="109.76" rerouteNo="0" devices="tripinfo_37" vType="DEFAULT_VEHTYPE" speedFactor="1.02" vaporized=""/>
    <tripinfo id="87" depart="94.00" departLane="597602753#0_0" departPos="5.10" departSpeed="0.00" departDelay="0.00" arrival="220.00" arrivalLane="918280984_0" arrivalPos="38.78" arrivalSpeed="12.73" duration="126.00" routeLength="1540.95" waitingTime="31.00" waitingCount="1" stopTime="0.00" timeLoss="55.63" rerouteNo="0" devices="tripinfo_87" vType="DEFAULT_VEHTYPE" speedFactor="0.98" vaporized=""/>
    <tripinfo id="104" depart="112.00" departLane="422688973_0" departPos="5.10" departSpeed="0.00" departDelay="0.00" arrival="220.00" arrivalLane="-318908683#1_0" arrivalPos="71.22" arrivalSpeed="12.67" duration="108.00" routeLength="684.23" waitingTime="56.00" waitingCount="2" stopTime="0.00" timeLoss="79.30" rerouteNo="0" devices="tripinfo_104" vType="DEFAULT_VEHTYPE" speedFactor="0.97" vaporized=""/>
    <tripinfo id="38" depart="47.00" departLane="422688973_0" departPos="5.10" departSpeed="0.00" departDelay="1.00" arrival="224.00" arrivalLane="-597602756#0_0" arrivalPos="325.99" arrivalSpeed="20.38" duration="177.00" routeLength="1900.12" waitingTime="58.00" waitingCount="2" stopTime="0.00" timeLoss="92.03" rerouteNo="0" devices="tripinfo_38" vType="DEFAULT_VEHTYPE" speedFactor="0.97" vaporized=""/>
    <tripinfo id="123" depart="145.00" departLane="422688973_0" departPos="5.10" departSpeed="0.00" departDelay="2.00" arrival="225.00" arrivalLane="-318908683#1_0" arrivalPos="71.22" arrivalSpeed="14.03" duration="80.00" routeLength="684.23" waitingTime="34.00" waitingCount="1" stopTime="0.00" timeLoss="54.30" rerouteNo="0" devices="tripinfo_123" vType="DEFAULT_VEHTYPE" speedFactor="1.10" vaporized=""/>
    <tripinfo id="126" depart="145.00" departLane="-260998164#3_0" departPos="5.10" departSpeed="0.00" departDelay="1.00" arrival="231.00" arrivalLane="-597602756#0_0" arrivalPos="325.99" arrivalSpeed="23.40" duration="86.00" routeLength="1231.40" waitingTime="0.00" waitingCount="0" stopTime="0.00" timeLoss="17.48" rerouteNo="0" devices="tripinfo_126" vType="DEFAULT_VEHTYPE" speedFactor="1.06" vaporized=""/>