<?xml version="1.0" encoding="UTF-8"?>

<!-- generated on 2023-04-28 22:42:11 by Eclipse SUMO sumo Version 1.16.0
<configuration xmlns:xsi="http://www.w3.org/2001/XMLSchema-instance" xsi:noNamespaceSchemaLocation="http://sumo.dlr.de/xsd/sumoConfiguration.xsd">

    <input>
        <net-file value="C:\Users\Local_Man\Desktop\Stolen%20Music\school%20stuff%20for%20college\Semester%2015%20(UH%20Graduate%20School)\COSC%206364%20Nikolaos\SUMO_Project\COSC6364_Project\configurations\maps\Braess_Homebrew_fixed1.net.xml"/>
        <route-files value="./configurations/Rounds/Braess_Homebrew_fixed1.net.xml-test-2/Mesoscopic_DUE/019/Trips_File_019.rou.xml"/>
    </input>

    <output>
        <summary-output value="./configurations/Rounds/Braess_Homebrew_fixed1.net.xml-test-2/Mesoscopic_DUE/019/summary.xml"/>
        <tripinfo-output value="./configurations/Rounds/Braess_Homebrew_fixed1.net.xml-test-2/Mesoscopic_DUE/019/trips.trips.xml"/>
        <statistic-output value="./configurations/Rounds/Braess_Homebrew_fixed1.net.xml-test-2/Mesoscopic_DUE/019/stats_output.xml"/>
    </output>

    <time>
        <begin value="0"/>
    </time>

    <report>
        <log value="./configurations/Rounds/Braess_Homebrew_fixed1.net.xml-test-2/Mesoscopic_DUE/019/log.sumo.log"/>
        <no-step-log value="true"/>
    </report>

    <gui_only>
        <quit-on-end value="true"/>
    </gui_only>

</configuration>
-->

<tripinfos xmlns:xsi="http://www.w3.org/2001/XMLSchema-instance" xsi:noNamespaceSchemaLocation="http://sumo.dlr.de/xsd/tripinfo_file.xsd">
    <tripinfo id="2" depart="3.00" departLane="E0_0" departPos="5.10" departSpeed="0.00" departDelay="0.00" arrival="101.00" arrivalLane="E3_0" arrivalPos="90.46" arrivalSpeed="24.85" duration="98.00" routeLength="1317.38" waitingTime="0.00" waitingCount="0" stopTime="0.00" timeLoss="17.22" rerouteNo="0" devices="tripinfo_2" vType="DEFAULT_VEHTYPE" speedFactor="1.06" vaporized=""/>
    <tripinfo id="4" depart="9.00" departLane="E0_0" departPos="5.10" departSpeed="0.00" departDelay="1.00" arrival="105.00" arrivalLane="E3_0" arrivalPos="90.46" arrivalSpeed="29.04" duration="96.00" routeLength="1314.99" waitingTime="0.00" waitingCount="0" stopTime="0.00" timeLoss="15.23" rerouteNo="0" devices="tripinfo_4" vType="DEFAULT_VEHTYPE" speedFactor="1.01" vaporized=""/>
    <tripinfo id="5" depart="12.00" departLane="E0_0" departPos="5.10" departSpeed="0.00" departDelay="3.00" arrival="107.00" arrivalLane="E3_0" arrivalPos="90.46" arrivalSpeed="31.23" duration="95.00" routeLength="1314.99" waitingTime="0.00" waitingCount="0" stopTime="0.00" timeLoss="18.80" rerouteNo="0" devices="tripinfo_5" vType="DEFAULT_VEHTYPE" speedFactor="1.08" vaporized=""/>
    <tripinfo id="3" depart="6.00" departLane="E0_0" departPos="5.10" departSpeed="0.00" departDelay="3.00" arrival="114.00" arrivalLane="E3_0" arrivalPos="90.46" arrivalSpeed="24.15" duration="108.00" routeLength="1317.38" waitingTime="0.00" waitingCount="0" stopTime="0.00" timeLoss="16.43" rerouteNo="0" devices="tripinfo_3" vType="DEFAULT_VEHTYPE" speedFactor="0.94" vaporized=""/>
    <tripinfo id="6" depart="15.00" departLane="E0_0" departPos="5.10" departSpeed="0.00" departDelay="5.00" arrival="118.00" arrivalLane="E3_0" arrivalPos="90.46" arrivalSpeed="26.97" duration="103.00" routeLength="1317.38" waitingTime="0.00" waitingCount="0" stopTime="0.00" timeLoss="19.26" rerouteNo="0" devices="tripinfo_6" vType="DEFAULT_VEHTYPE" speedFactor="1.03" vaporized=""/>
    <tripinfo id="8" depart="21.00" departLane="E0_0" departPos="5.10" departSpeed="0.00" departDelay="7.00" arrival="124.00" arrivalLane="E3_0" arrivalPos="90.46" arrivalSpeed="25.36" duration="103.00" routeLength="1317.38" waitingTime="0.00" waitingCount="0" stopTime="0.00" timeLoss="20.77" rerouteNo="0" devices="tripinfo_8" vType="DEFAULT_VEHTYPE" speedFactor="1.05" vaporized=""/>
    <tripinfo id="7" depart="18.00" departLane="E0_0" departPos="5.10" departSpeed="0.00" departDelay="6.00" arrival="131.00" arrivalLane="E3_0" arrivalPos="90.46" arrivalSpeed="24.85" duration="113.00" routeLength="1314.99" waitingTime="0.00" waitingCount="0" stopTime="0.00" timeLoss="13.94" rerouteNo="0" devices="tripinfo_7" vType="DEFAULT_VEHTYPE" speedFactor="0.83" vaporized=""/>
    <tripinfo id="9" depart="24.00" departLane="E0_0" departPos="5.10" departSpeed="0.00" departDelay="9.00" arrival="132.00" arrivalLane="E3_0" arrivalPos="90.46" arrivalSpeed="25.59" duration="108.00" routeLength="1314.99" waitingTime="0.00" waitingCount="0" stopTime="0.00" timeLoss="15.62" rerouteNo="0" devices="tripinfo_9" vType="DEFAULT_VEHTYPE" speedFactor="0.89" vaporized=""/>
    <tripinfo id="10" depart="27.00" departLane="E0_0" departPos="5.10" departSpeed="0.00" departDelay="12.00" arrival="134.00" arrivalLane="E3_0" arrivalPos="90.46" arrivalSpeed="27.99" duration="107.00" routeLength="1314.99" waitingTime="0.00" waitingCount="0" stopTime="0.00" timeLoss="18.82" rerouteNo="0" devices="tripinfo_10" vType="DEFAULT_VEHTYPE" speedFactor="0.94" vaporized=""/>
    <tripinfo id="12" depart="33.00" departLane="E0_0" departPos="5.10" departSpeed="0.00" departDelay="13.00" arrival="135.00" arrivalLane="E3_0" arrivalPos="90.46" arrivalSpeed="28.46" duration="102.00" routeLength="1314.99" waitingTime="0.00" waitingCount="0" stopTime="0.00" timeLoss="26.59" rerouteNo="0" devices="tripinfo_12" vType="DEFAULT_VEHTYPE" speedFactor="1.09" vaporized=""/>
    <tripinfo id="14" depart="39.00" departLane="E0_0" departPos="5.10" departSpeed="0.00" departDelay="17.00" arrival="136.00" arrivalLane="E3_0" arrivalPos="90.46" arrivalSpeed="29.36" duration="97.00" routeLength="1314.99" waitingTime="0.00" waitingCount="0" stopTime="0.00" timeLoss="19.00" rerouteNo="0" devices="tripinfo_14" vType="DEFAULT_VEHTYPE" speedFactor="1.05" vaporized=""/>
    <tripinfo id="15" depart="42.00" departLane="E0_0" departPos="5.10" departSpeed="0.00" departDelay="19.00" arrival="138.00" arrivalLane="E3_0" arrivalPos="90.46" arrivalSpeed="30.01" duration="96.00" routeLength="1314.99" waitingTime="0.00" waitingCount="0" stopTime="0.00" timeLoss="22.78" rerouteNo="0" devices="tripinfo_15" vType="DEFAULT_VEHTYPE" speedFactor="1.12" vaporized=""/>
    <tripinfo id="11" depart="30.00" departLane="E0_0" departPos="5.10" departSpeed="0.00" departDelay="13.00" arrival="147.00" arrivalLane="E3_0" arrivalPos="90.46" arrivalSpeed="25.29" duration="117.00" routeLength="1317.38" waitingTime="0.00" waitingCount="0" stopTime="0.00" timeLoss="17.41" rerouteNo="0" devices="tripinfo_11" vType="DEFAULT_VEHTYPE" speedFactor="0.86" vaporized=""/>
    <tripinfo id="17" depart="48.00" departLane="E0_0" departPos="5.10" departSpeed="0.00" departDelay="24.00" arrival="151.00" arrivalLane="E3_0" arrivalPos="90.46" arrivalSpeed="27.31" duration="103.00" routeLength="1314.99" waitingTime="0.00" waitingCount="0" stopTime="0.00" timeLoss="14.02" rerouteNo="0" devices="tripinfo_17" vType="DEFAULT_VEHTYPE" speedFactor="0.93" vaporized=""/>
    <tripinfo id="18" depart="51.00" departLane="E0_0" departPos="5.10" departSpeed="0.00" departDelay="27.00" arrival="159.00" arrivalLane="E3_0" arrivalPos="90.46" arrivalSpeed="26.02" duration="108.00" routeLength="1314.99" waitingTime="0.00" waitingCount="0" stopTime="0.00" timeLoss="14.07" rerouteNo="0" devices="tripinfo_18" vType="DEFAULT_VEHTYPE" speedFactor="0.88" vaporized=""/>
    <tripinfo id="20" depart="57.00" departLane="E0_0" departPos="5.10" departSpeed="0.00" departDelay="28.00" arrival="160.00" arrivalLane="E3_0" arrivalPos="90.46" arrivalSpeed="27.04" duration="103.00" routeLength="1314.99" waitingTime="0.00" waitingCount="0" stopTime="0.00" timeLoss="15.69" rerouteNo="0" devices="tripinfo_20" vType="DEFAULT_VEHTYPE" speedFactor="0.94" vaporized=""/>
    <tripinfo id="22" depart="63.00" departLane="E0_0" departPos="5.10" departSpeed="0.00" departDelay="31.00" arrival="162.00" arrivalLane="E3_0" arrivalPos="90.46" arrivalSpeed="29.49" duration="99.00" routeLength="1314.99" waitingTime="0.00" waitingCount="0" stopTime="0.00" timeLoss="18.29" rerouteNo="0" devices="tripinfo_22" vType="DEFAULT_VEHTYPE" speedFactor="1.02" vaporized=""/>
    <tripinfo id="23" depart="66.00" departLane="E0_0" departPos="5.10" departSpeed="0.00" departDelay="34.00" arrival="163.00" arrivalLane="E3_0" arrivalPos="90.46" arrivalSpeed="29.25" duration="97.00" routeLength="1314.99" waitingTime="0.00" waitingCount="0" stopTime="0.00" timeLoss="16.11" rerouteNo="0" devices="tripinfo_23" vType="DEFAULT_VEHTYPE" speedFactor="1.01" vaporized=""/>
    <tripinfo id="24" depart="69.00" departLane="E0_0" departPos="5.10" departSpeed="0.00" departDelay="36.00" arrival="168.00" arrivalLane="E3_0" arrivalPos="90.46" arrivalSpeed="29.17" duration="99.00" routeLength="1314.99" waitingTime="0.00" waitingCount="0" stopTime="0.00" timeLoss="14.37" rerouteNo="0" devices="tripinfo_24" vType="DEFAULT_VEHTYPE" speedFactor="0.97" vaporized=""/>
    <tripinfo id="13" depart="36.00" departLane="E0_0" departPos="5.10" departSpeed="0.00" departDelay="16.00" arrival="177.00" arrivalLane="E3_0" arrivalPos="90.46" arrivalSpeed="24.77" duration="141.00" routeLength="1317.38" waitingTime="22.00" waitingCount="1" stopTime="0.00" timeLoss="57.66" rerouteNo="0" devices="tripinfo_13" vType="DEFAULT_VEHTYPE" speedFactor="1.03" vaporized=""/>
    <tripinfo id="16" depart="45.00" departLane="E0_0" departPos="5.10" departSpeed="0.00" departDelay="22.00" arrival="179.00" arrivalLane="E3_0" arrivalPos="90.46" arrivalSpeed="24.88" duration="134.00" routeLength="1317.38" waitingTime="22.00" waitingCount="1" stopTime="0.00" timeLoss="47.89" rerouteNo="0" devices="tripinfo_16" vType="DEFAULT_VEHTYPE" speedFactor="0.99" vaporized=""/>
    <tripinfo id="19" depart="54.00" departLane="E0_0" departPos="5.10" departSpeed="0.00" departDelay="26.00" arrival="182.00" arrivalLane="E3_0" arrivalPos="90.46" arrivalSpeed="26.11" duration="128.00" routeLength="1317.38" waitingTime="14.00" waitingCount="1" stopTime="0.00" timeLoss="36.46" rerouteNo="0" devices="tripinfo_19" vType="DEFAULT_VEHTYPE" speedFactor="0.94" vaporized=""/>
    <tripinfo id="29" depart="85.00" departLane="E0_0" departPos="5.10" departSpeed="0.00" departDelay="48.00" arrival="187.00" arrivalLane="E3_0" arrivalPos="90.46" arrivalSpeed="27.17" duration="102.00" routeLength="1314.99" waitingTime="0.00" waitingCount="0" stopTime="0.00" timeLoss="15.68" rerouteNo="0" devices="tripinfo_29" vType="DEFAULT_VEHTYPE" speedFactor="0.95" vaporized=""/>
    <tripinfo id="30" depart="88.00" departLane="E0_0" departPos="5.10" departSpeed="0.00" departDelay="51.00" arrival="189.00" arrivalLane="E3_0" arrivalPos="90.46" arrivalSpeed="31.55" duration="101.00" routeLength="1314.99" waitingTime="0.00" waitingCount="0" stopTime="0.00" timeLoss="27.67" rerouteNo="0" devices="tripinfo_30" vType="DEFAULT_VEHTYPE" speedFactor="1.13" vaporized=""/>
    <tripinfo id="31" depart="91.00" departLane="E0_0" departPos="5.10" departSpeed="0.00" departDelay="54.00" arrival="194.00" arrivalLane="E3_0" arrivalPos="90.46" arrivalSpeed="26.88" duration="103.00" routeLength="1314.99" waitingTime="0.00" waitingCount="0" stopTime="0.00" timeLoss="15.45" rerouteNo="0" devices="tripinfo_31" vType="DEFAULT_VEHTYPE" speedFactor="0.93" vaporized=""/>
    <tripinfo id="32" depart="93.00" departLane="E0_0" departPos="5.10" departSpeed="0.00" departDelay="55.00" arrival="196.00" arrivalLane="E3_0" arrivalPos="90.46" arrivalSpeed="30.42" duration="103.00" routeLength="1314.99" waitingTime="0.00" waitingCount="0" stopTime="0.00" timeLoss="33.02" rerouteNo="0" devices="tripinfo_32" vType="DEFAULT_VEHTYPE" speedFactor="1.18" vaporized=""/>
    <tripinfo id="33" depart="96.00" departLane="E0_0" departPos="5.10" departSpeed="0.00" departDelay="58.00" arrival="197.00" arrivalLane="E3_0" arrivalPos="90.46" arrivalSpeed="31.56" duration="101.00" routeLength="1314.99" waitingTime="0.00" waitingCount="0" stopTime="0.00" timeLoss="29.97" rerouteNo="0" devices="tripinfo_33" vType="DEFAULT_VEHTYPE" speedFactor="1.15" vaporized=""/>
    <tripinfo id="35" depart="102.00" departLane="E0_0" departPos="5.10" departSpeed="0.00" departDelay="63.00" arrival="198.00" arrivalLane="E3_0" arrivalPos="90.46" arrivalSpeed="31.25" duration="96.00" routeLength="1314.99" waitingTime="0.00" waitingCount="0" stopTime="0.00" timeLoss="26.33" rerouteNo="0" devices="tripinfo_35" vType="DEFAULT_VEHTYPE" speedFactor="1.17" vaporized=""/>
    <tripinfo id="37" depart="108.00" departLane="E0_0" departPos="5.10" departSpeed="0.00" departDelay="68.00" arrival="205.00" arrivalLane="E3_0" arrivalPos="90.46" arrivalSpeed="30.00" duration="97.00" routeLength="1314.99" waitingTime="0.00" waitingCount="0" stopTime="0.00" timeLoss="15.95" rerouteNo="0" devices="tripinfo_37" vType="DEFAULT_VEHTYPE" speedFactor="1.02" vaporized=""/>
    <tripinfo id="39" depart="114.00" departLane="E0_0" departPos="5.10" departSpeed="0.00" departDelay="69.00" arrival="206.00" arrivalLane="E3_0" arrivalPos="90.46" arrivalSpeed="31.48" duration="92.00" routeLength="1314.99" waitingTime="0.00" waitingCount="0" stopTime="0.00" timeLoss="22.16" rerouteNo="0" devices="tripinfo_39" vType="DEFAULT_VEHTYPE" speedFactor="1.18" vaporized=""/>
    <tripinfo id="40" depart="117.00" departLane="E0_0" departPos="5.10" departSpeed="0.00" departDelay="71.00" arrival="208.00" arrivalLane="E3_0" arrivalPos="90.46" arrivalSpeed="32.41" duration="91.00" routeLength="1314.99" waitingTime="0.00" waitingCount="0" stopTime="0.00" timeLoss="15.84" rerouteNo="0" devices="tripinfo_40" vType="DEFAULT_VEHTYPE" speedFactor="1.10" vaporized=""/>
    <tripinfo id="21" depart="60.00" departLane="E0_0" departPos="5.10" departSpeed="0.00" departDelay="29.00" arrival="217.00" arrivalLane="E3_0" arrivalPos="90.46" arrivalSpeed="26.39" duration="157.00" routeLength="1317.38" waitingTime="41.00" waitingCount="2" stopTime="0.00" timeLoss="82.65" rerouteNo="0" devices="tripinfo_21" vType="DEFAULT_VEHTYPE" speedFactor="1.16" vaporized=""/>
    <tripinfo id="25" depart="72.00" departLane="E0_0" departPos="5.10" departSpeed="0.00" departDelay="39.00" arrival="219.00" arrivalLane="E3_0" arrivalPos="90.46" arrivalSpeed="24.97" duration="147.00" routeLength="1317.38" waitingTime="28.00" waitingCount="1" stopTime="0.00" timeLoss="50.27" rerouteNo="0" devices="tripinfo_25" vType="DEFAULT_VEHTYPE" speedFactor="0.89" vaporized=""/>
    <tripinfo id="26" depart="75.00" departLane="E0_0" departPos="5.10" departSpeed="0.00" departDelay="41.00" arrival="222.00" arrivalLane="E3_0" arrivalPos="90.46" arrivalSpeed="23.96" duration="147.00" routeLength="1317.38" waitingTime="24.00" waitingCount="1" stopTime="0.00" timeLoss="42.67" rerouteNo="0" devices="tripinfo_26" vType="DEFAULT_VEHTYPE" speedFactor="0.83" vaporized=""/>
    <tripinfo id="41" depart="120.00" departLane="E0_0" departPos="5.10" departSpeed="0.00" departDelay="74.00" arrival="226.00" arrivalLane="E3_0" arrivalPos="90.46" arrivalSpeed="26.30" duration="106.00" routeLength="1314.99" waitingTime="0.00" waitingCount="0" stopTime="0.00" timeLoss="14.73" rerouteNo="0" devices="tripinfo_41" vType="DEFAULT_VEHTYPE" speedFactor="0.90" vaporized=""/>
    <tripinfo id="42" depart="123.00" departLane="E0_0" departPos="5.10" departSpeed="0.00" departDelay="77.00" arrival="227.00" arrivalLane="E3_0" arrivalPos="90.46" arrivalSpeed="30.21" duration="104.00" routeLength="1314.99" waitingTime="0.00" waitingCount="0" stopTime="0.00" timeLoss="24.36" rerouteNo="0" devices="tripinfo_42" vType="DEFAULT_VEHTYPE" speedFactor="1.03" vaporized=""/>
    <tripinfo id="44" depart="129.00" departLane="E0_0" departPos="5.10" departSpeed="0.00" departDelay="78.00" arrival="229.00" arrivalLane="E3_0" arrivalPos="90.46" arrivalSpeed="30.34" duration="100.00" routeLength="1314.99" waitingTime="0.00" waitingCount="0" stopTime="0.00" timeLoss="24.35" rerouteNo="0" devices="tripinfo_44" vType="DEFAULT_VEHTYPE" speedFactor="1.09" vaporized=""/>
    <tripinfo id="45" depart="132.00" departLane="E0_0" departPos="5.10" departSpeed="0.00" departDelay="81.00" arrival="230.00" arrivalLane="E3_0" arrivalPos="90.46" arrivalSpeed="28.95" duration="98.00" routeLength="1314.99" waitingTime="0.00" waitingCount="0" stopTime="0.00" timeLoss="18.90" rerouteNo="0" devices="tripinfo_45" vType="DEFAULT_VEHTYPE" speedFactor="1.04" vaporized=""/>
    <tripinfo id="46" depart="135.00" departLane="E0_0" departPos="5.10" departSpeed="0.00" departDelay="83.00" arrival="232.00" arrivalLane="E3_0" arrivalPos="90.46" arrivalSpeed="31.22" duration="97.00" routeLength="1314.99" waitingTime="0.00" waitingCount="0" stopTime="0.00" timeLoss="17.71" rerouteNo="0" devices="tripinfo_46" vType="DEFAULT_VEHTYPE" speedFactor="1.04" vaporized=""/>
    <tripinfo id="48" depart="141.00" departLane="E0_0" departPos="5.10" departSpeed="0.00" departDelay="88.00" arrival="238.00" arrivalLane="E3_0" arrivalPos="90.46" arrivalSpeed="29.27" duration="97.00" routeLength="1314.99" waitingTime="0.00" waitingCount="0" stopTime="0.00" timeLoss="14.84" rerouteNo="0" devices="tripinfo_48" vType="DEFAULT_VEHTYPE" speedFactor="1.00" vaporized=""/>
    <tripinfo id="27" depart="78.00" departLane="E0_0" departPos="5.10" departSpeed="0.00" departDelay="43.00" arrival="248.00" arrivalLane="E3_0" arrivalPos="90.46" arrivalSpeed="24.11" duration="170.00" routeLength="1317.38" waitingTime="41.00" waitingCount="2" stopTime="0.00" timeLoss="72.31" rerouteNo="0" devices="tripinfo_27" vType="DEFAULT_VEHTYPE" speedFactor="0.87" vaporized=""/>
    <tripinfo id="50" depart="147.00" departLane="E0_0" departPos="5.10" departSpeed="0.00" departDelay="89.00" arrival="254.00" arrivalLane="E3_0" arrivalPos="90.46" arrivalSpeed="25.45" duration="107.00" routeLength="1314.99" waitingTime="0.00" waitingCount="0" stopTime="0.00" timeLoss="13.27" rerouteNo="0" devices="tripinfo_50" vType="DEFAULT_VEHTYPE" speedFactor="0.88" vaporized=""/>
    <tripinfo id="57" depart="168.00" departLane="E0_0" departPos="5.10" departSpeed="0.00" departDelay="107.00" arrival="264.00" arrivalLane="E3_0" arrivalPos="90.46" arrivalSpeed="29.30" duration="96.00" routeLength="1314.99" waitingTime="0.00" waitingCount="0" stopTime="0.00" timeLoss="13.47" rerouteNo="0" devices="tripinfo_57" vType="DEFAULT_VEHTYPE" speedFactor="1.00" vaporized=""/>
    <tripinfo id="58" depart="171.00" departLane="E0_0" departPos="5.10" departSpeed="0.00" departDelay="110.00" arrival="275.00" arrivalLane="E3_0" arrivalPos="90.46" arrivalSpeed="25.74" duration="104.00" routeLength="1314.99" waitingTime="0.00" waitingCount="0" stopTime="0.00" timeLoss="12.74" rerouteNo="0" devices="tripinfo_58" vType="DEFAULT_VEHTYPE" speedFactor="0.90" vaporized=""/>
    <tripinfo id="60" depart="177.00" departLane="E0_0" departPos="5.10" departSpeed="0.00" departDelay="114.00" arrival="277.00" arrivalLane="E3_0" arrivalPos="90.46" arrivalSpeed="29.49" duration="100.00" routeLength="1314.99" waitingTime="0.00" waitingCount="0" stopTime="0.00" timeLoss="19.30" rerouteNo="0" devices="tripinfo_60" vType="DEFAULT_VEHTYPE" speedFactor="1.02" vaporized=""/>
    <tripinfo id="62" depart="183.00" departLane="E0_0" departPos="5.10" departSpeed="0.00" departDelay="119.00" arrival="278.00" arrivalLane="E3_0" arrivalPos="90.46" arrivalSpeed="31.15" duration="95.00" routeLength="1314.99" waitingTime="0.00" waitingCount="0" stopTime="0.00" timeLoss="19.00" rerouteNo="0" devices="tripinfo_62" vType="DEFAULT_VEHTYPE" speedFactor="1.08" vaporized=""/>
    <tripinfo id="64" depart="189.00" departLane="E0_0" departPos="5.10" departSpeed="0.00" departDelay="124.00" arrival="284.00" arrivalLane="E3_0" arrivalPos="90.46" arrivalSpeed="30.00" duration="95.00" routeLength="1314.99" waitingTime="0.00" waitingCount="0" stopTime="0.00" timeLoss="13.47" rerouteNo="0" devices="tripinfo_64" vType="DEFAULT_VEHTYPE" speedFactor="1.02" vaporized=""/>
    <tripinfo id="65" depart="192.00" departLane="E0_0" departPos="5.10" departSpeed="0.00" departDelay="124.00" arrival="290.00" arrivalLane="E3_0" arrivalPos="90.46" arrivalSpeed="28.47" duration="98.00" routeLength="1314.99" waitingTime="0.00" waitingCount="0" stopTime="0.00" timeLoss="15.07" rerouteNo="0" devices="tripinfo_65" vType="DEFAULT_VEHTYPE" speedFactor="0.99" vaporized=""/>
    <tripinfo id="66" depart="195.00" departLane="E0_0" departPos="5.10" departSpeed="0.00" departDelay="122.00" arrival="298.00" arrivalLane="E3_0" arrivalPos="90.46" arrivalSpeed="28.05" duration="103.00" routeLength="1314.99" waitingTime="0.00" waitingCount="0" stopTime="0.00" timeLoss="15.17" rerouteNo="0" devices="tripinfo_66" vType="DEFAULT_VEHTYPE" speedFactor="0.94" vaporized=""/>
    <tripinfo id="67" depart="198.00" departLane="E0_0" departPos="5.10" departSpeed="0.00" departDelay="122.00" arrival="305.00" arrivalLane="E3_0" arrivalPos="90.46" arrivalSpeed="26.08" duration="107.00" routeLength="1314.99" waitingTime="0.00" waitingCount="0" stopTime="0.00" timeLoss="13.99" rerouteNo="0" devices="tripinfo_67" vType="DEFAULT_VEHTYPE" speedFactor="0.88" vaporized=""/>
    <tripinfo id="69" depart="204.00" departLane="E0_0" departPos="5.10" departSpeed="0.00" departDelay="128.00" arrival="309.00" arrivalLane="E3_0" arrivalPos="90.46" arrivalSpeed="26.40" duration="105.00" routeLength="1314.99" waitingTime="0.00" waitingCount="0" stopTime="0.00" timeLoss="15.06" rerouteNo="0" devices="tripinfo_69" vType="DEFAULT_VEHTYPE" speedFactor="0.91" vaporized=""/>
    <tripinfo id="70" depart="207.00" departLane="E0_0" departPos="5.10" departSpeed="0.00" departDelay="128.00" arrival="310.00" arrivalLane="E3_0" arrivalPos="90.46" arrivalSpeed="29.39" duration="103.00" routeLength="1314.99" waitingTime="0.00" waitingCount="0" stopTime="0.00" timeLoss="24.05" rerouteNo="0" devices="tripinfo_70" vType="DEFAULT_VEHTYPE" speedFactor="1.04" vaporized=""/>
    <tripinfo id="72" depart="213.00" departLane="E0_0" departPos="5.10" departSpeed="0.00" departDelay="130.00" arrival="312.00" arrivalLane="E3_0" arrivalPos="90.46" arrivalSpeed="30.40" duration="99.00" routeLength="1314.99" waitingTime="0.00" waitingCount="0" stopTime="0.00" timeLoss="18.19" rerouteNo="0" devices="tripinfo_72" vType="DEFAULT_VEHTYPE" speedFactor="1.02" vaporized=""/>
    <tripinfo id="73" depart="216.00" departLane="E0_0" departPos="5.10" departSpeed="0.00" departDelay="129.00" arrival="315.00" arrivalLane="E3_0" arrivalPos="90.46" arrivalSpeed="28.96" duration="99.00" routeLength="1314.99" waitingTime="0.00" waitingCount="0" stopTime="0.00" timeLoss="14.40" rerouteNo="0" devices="tripinfo_73" vType="DEFAULT_VEHTYPE" speedFactor="0.97" vaporized=""/>
    <tripinfo id="74" depart="219.00" departLane="E0_0" departPos="5.10" departSpeed="0.00" departDelay="132.00" arrival="321.00" arrivalLane="E3_0" arrivalPos="90.46" arrivalSpeed="27.93" duration="102.00" routeLength="1314.99" waitingTime="0.00" waitingCount="0" stopTime="0.00" timeLoss="15.03" rerouteNo="0" devices="tripinfo_74" vType="DEFAULT_VEHTYPE" speedFactor="0.94" vaporized=""/>
    <tripinfo id="76" depart="225.00" departLane="E0_0" departPos="5.10" departSpeed="0.00" departDelay="135.00" arrival="326.00" arrivalLane="E3_0" arrivalPos="90.46" arrivalSpeed="28.32" duration="101.00" routeLength="1314.99" waitingTime="0.00" waitingCount="0" stopTime="0.00" timeLoss="14.74" rerouteNo="0" devices="tripinfo_76" vType="DEFAULT_VEHTYPE" speedFactor="0.96" vaporized=""/>
    <tripinfo id="77" depart="228.00" departLane="E0_0" departPos="5.10" departSpeed="0.00" departDelay="136.00" arrival="327.00" arrivalLane="E3_0" arrivalPos="90.46" arrivalSpeed="29.26" duration="99.00" routeLength="1314.99" waitingTime="0.00" waitingCount="0" stopTime="0.00" timeLoss="15.70" rerouteNo="0" devices="tripinfo_77" vType="DEFAULT_VEHTYPE" speedFactor="0.98" vaporized=""/>
    <tripinfo id="78" depart="231.00" departLane="E0_0" departPos="5.10" departSpeed="0.00" departDelay="138.00" arrival="328.00" arrivalLane="E3_0" arrivalPos="90.46" arrivalSpeed="30.59" duration="97.00" routeLength="1314.99" waitingTime="0.00" waitingCount="0" stopTime="0.00" timeLoss="17.93" rerouteNo="0" devices="tripinfo_78" vType="DEFAULT_VEHTYPE" speedFactor="1.03" vaporized=""/>
    <tripinfo id="79" depart="234.00" departLane="E0_0" departPos="5.10" departSpeed="0.00" departDelay="140.00" arrival="332.00" arrivalLane="E3_0" arrivalPos="90.46" arrivalSpeed="28.86" duration="98.00" routeLength="1314.99" waitingTime="0.00" waitingCount="0" stopTime="0.00" timeLoss="14.43" rerouteNo="0" devices="tripinfo_79" vType="DEFAULT_VEHTYPE" speedFactor="0.98" vaporized=""/>
    <tripinfo id="81" depart="240.00" departLane="E0_0" departPos="5.10" departSpeed="0.00" departDelay="144.00" arrival="333.00" arrivalLane="E3_0" arrivalPos="90.46" arrivalSpeed="30.91" duration="93.00" routeLength="1314.99" waitingTime="0.00" waitingCount="0" stopTime="0.00" timeLoss="17.59" rerouteNo="0" devices="tripinfo_81" vType="DEFAULT_VEHTYPE" speedFactor="1.09" vaporized=""/>
    <tripinfo id="82" depart="244.00" departLane="E0_0" departPos="5.10" departSpeed="0.00" departDelay="148.00" arrival="339.00" arrivalLane="E3_0" arrivalPos="90.46" arrivalSpeed="30.86" duration="95.00" routeLength="1314.99" waitingTime="0.00" waitingCount="0" stopTime="0.00" timeLoss="15.07" rerouteNo="0" devices="tripinfo_82" vType="DEFAULT_VEHTYPE" speedFactor="1.03" vaporized=""/>
    <tripinfo id="83" depart="247.00" departLane="E0_0" departPos="5.10" departSpeed="0.00" departDelay="150.00" arrival="345.00" arrivalLane="E3_0" arrivalPos="90.46" arrivalSpeed="29.34" duration="98.00" routeLength="1314.99" waitingTime="0.00" waitingCount="0" stopTime="0.00" timeLoss="15.39" rerouteNo="0" devices="tripinfo_83" vType="DEFAULT_VEHTYPE" speedFactor="1.00" vaporized=""/>
    <tripinfo id="85" depart="253.00" departLane="E0_0" departPos="5.10" departSpeed="0.00" departDelay="152.00" arrival="351.00" arrivalLane="E3_0" arrivalPos="90.46" arrivalSpeed="28.14" duration="98.00" routeLength="1314.99" waitingTime="0.00" waitingCount="0" stopTime="0.00" timeLoss="12.99" rerouteNo="0" devices="tripinfo_85" vType="DEFAULT_VEHTYPE" speedFactor="0.97" vaporized=""/>
    <tripinfo id="87" depart="259.00" departLane="E0_0" departPos="5.10" departSpeed="0.00" departDelay="157.00" arrival="357.00" arrivalLane="E3_0" arrivalPos="90.46" arrivalSpeed="29.07" duration="98.00" routeLength="1314.99" waitingTime="0.00" waitingCount="0" stopTime="0.00" timeLoss="13.48" rerouteNo="0" devices="tripinfo_87" vType="DEFAULT_VEHTYPE" speedFactor="0.98" vaporized=""/>
    <tripinfo id="88" depart="262.00" departLane="E0_0" departPos="5.10" departSpeed="0.00" departDelay="158.00" arrival="358.00" arrivalLane="E3_0" arrivalPos="90.46" arrivalSpeed="29.44" duration="96.00" routeLength="1314.99" waitingTime="0.00" waitingCount="0" stopTime="0.00" timeLoss="14.02" rerouteNo="0" devices="tripinfo_88" vType="DEFAULT_VEHTYPE" speedFactor="1.00" vaporized=""/>
    <tripinfo id="28" depart="82.00" departLane="E0_0" departPos="5.10" departSpeed="0.00" departDelay="47.00" arrival="368.00" arrivalLane="E3_0" arrivalPos="90.46" arrivalSpeed="24.43" duration="286.00" routeLength="1317.38" waitingTime="153.00" waitingCount="3" stopTime="0.00" timeLoss="192.30" rerouteNo="0" devices="tripinfo_28" vType="DEFAULT_VEHTYPE" speedFactor="0.92" vaporized=""/>
    <tripinfo id="91" depart="271.00" departLane="E0_0" departPos="5.10" departSpeed="0.00" departDelay="165.00" arrival="369.00" arrivalLane="E3_0" arrivalPos="90.46" arrivalSpeed="23.79" duration="98.00" routeLength="1314.99" waitingTime="0.00" waitingCount="0" stopTime="0.00" timeLoss="18.06" rerouteNo="0" devices="tripinfo_91" vType="DEFAULT_VEHTYPE" speedFactor="1.02" vaporized=""/>
    <tripinfo id="92" depart="274.00" departLane="E0_0" departPos="5.10" departSpeed="0.00" departDelay="165.00" arrival="371.00" arrivalLane="E3_0" arrivalPos="90.46" arrivalSpeed="28.73" duration="97.00" routeLength="1314.99" waitingTime="0.00" waitingCount="0" stopTime="0.00" timeLoss="15.96" rerouteNo="0" devices="tripinfo_92" vType="DEFAULT_VEHTYPE" speedFactor="1.02" vaporized=""/>
    <tripinfo id="34" depart="99.00" departLane="E0_0" departPos="5.10" departSpeed="0.00" departDelay="61.00" arrival="380.00" arrivalLane="E3_0" arrivalPos="90.46" arrivalSpeed="23.54" duration="281.00" routeLength="1317.38" waitingTime="157.00" waitingCount="4" stopTime="0.00" timeLoss="195.95" rerouteNo="0" devices="tripinfo_34" vType="DEFAULT_VEHTYPE" speedFactor="1.01" vaporized=""/>
    <tripinfo id="36" depart="105.00" departLane="E0_0" departPos="5.10" departSpeed="0.00" departDelay="65.00" arrival="382.00" arrivalLane="E3_0" arrivalPos="90.46" arrivalSpeed="23.75" duration="277.00" routeLength="1317.38" waitingTime="150.00" waitingCount="4" stopTime="0.00" timeLoss="191.01" rerouteNo="0" devices="tripinfo_36" vType="DEFAULT_VEHTYPE" speedFactor="0.99" vaporized=""/>
    <tripinfo id="38" depart="111.00" departLane="E0_0" departPos="5.10" departSpeed="0.00" departDelay="70.00" arrival="384.00" arrivalLane="E3_0" arrivalPos="90.46" arrivalSpeed="25.15" duration="273.00" routeLength="1317.38" waitingTime="143.00" waitingCount="4" stopTime="0.00" timeLoss="185.30" rerouteNo="0" devices="tripinfo_38" vType="DEFAULT_VEHTYPE" speedFactor="0.97" vaporized=""/>
    <tripinfo id="94" depart="280.00" departLane="E0_0" departPos="5.10" departSpeed="0.00" departDelay="166.00" arrival="392.00" arrivalLane="E3_0" arrivalPos="90.46" arrivalSpeed="24.08" duration="112.00" routeLength="1314.99" waitingTime="0.00" waitingCount="0" stopTime="0.00" timeLoss="12.87" rerouteNo="0" devices="tripinfo_94" vType="DEFAULT_VEHTYPE" speedFactor="0.83" vaporized=""/>