<?xml version="1.0" encoding="UTF-8"?>

<!-- generated on 2023-04-28 21:50:41 by Eclipse SUMO sumo Version 1.16.0
<configuration xmlns:xsi="http://www.w3.org/2001/XMLSchema-instance" xsi:noNamespaceSchemaLocation="http://sumo.dlr.de/xsd/sumoConfiguration.xsd">

    <input>
        <net-file value="C:\Users\Local_Man\Desktop\Stolen%20Music\school%20stuff%20for%20college\Semester%2015%20(UH%20Graduate%20School)\COSC%206364%20Nikolaos\SUMO_Project\COSC6364_Project\configurations\maps\Braess_Homebrew_fixed1.net.xml"/>
        <route-files value="./configurations/Rounds/Braess_Homebrew_fixed1.net.xml-test-1/Macroscopic_DUE/019/Trips_File_019.rou.xml"/>
    </input>

    <output>
        <summary-output value="./configurations/Rounds/Braess_Homebrew_fixed1.net.xml-test-1/Macroscopic_DUE/019/summary.xml"/>
        <tripinfo-output value="./configurations/Rounds/Braess_Homebrew_fixed1.net.xml-test-1/Macroscopic_DUE/019/trips.trips.xml"/>
        <statistic-output value="./configurations/Rounds/Braess_Homebrew_fixed1.net.xml-test-1/Macroscopic_DUE/019/stats_output.xml"/>
    </output>

    <time>
        <begin value="0"/>
    </time>

    <report>
        <log value="./configurations/Rounds/Braess_Homebrew_fixed1.net.xml-test-1/Macroscopic_DUE/019/log.sumo.log"/>
        <no-step-log value="true"/>
    </report>

    <gui_only>
        <quit-on-end value="true"/>
    </gui_only>

</configuration>
-->

<tripinfos xmlns:xsi="http://www.w3.org/2001/XMLSchema-instance" xsi:noNamespaceSchemaLocation="http://sumo.dlr.de/xsd/tripinfo_file.xsd">
    <tripinfo id="2" depart="1.00" departLane="E0_0" departPos="5.10" departSpeed="19.50" departDelay="0.00" arrival="95.00" arrivalLane="E3_0" arrivalPos="90.46" arrivalSpeed="28.39" duration="94.00" routeLength="1314.99" waitingTime="0.00" waitingCount="0" stopTime="0.00" timeLoss="9.94" rerouteNo="0" devices="tripinfo_2" vType="DEFAULT_VEHTYPE" speedFactor="0.98" vaporized=""/>
    <tripinfo id="4" depart="5.00" departLane="E0_0" departPos="5.10" departSpeed="18.97" departDelay="0.00" arrival="97.00" arrivalLane="E3_0" arrivalPos="90.46" arrivalSpeed="31.67" duration="92.00" routeLength="1314.99" waitingTime="0.00" waitingCount="0" stopTime="0.00" timeLoss="23.20" rerouteNo="0" devices="tripinfo_4" vType="DEFAULT_VEHTYPE" speedFactor="1.20" vaporized=""/>
    <tripinfo id="5" depart="6.00" departLane="E0_0" departPos="5.10" departSpeed="17.18" departDelay="0.00" arrival="98.00" arrivalLane="E3_0" arrivalPos="90.46" arrivalSpeed="31.12" duration="92.00" routeLength="1314.99" waitingTime="0.00" waitingCount="0" stopTime="0.00" timeLoss="13.31" rerouteNo="0" devices="tripinfo_5" vType="DEFAULT_VEHTYPE" speedFactor="1.05" vaporized=""/>
    <tripinfo id="7" depart="8.00" departLane="E0_0" departPos="5.10" departSpeed="11.11" departDelay="1.00" arrival="110.00" arrivalLane="E3_0" arrivalPos="90.46" arrivalSpeed="27.68" duration="102.00" routeLength="1314.99" waitingTime="0.00" waitingCount="0" stopTime="0.00" timeLoss="14.33" rerouteNo="0" devices="tripinfo_7" vType="DEFAULT_VEHTYPE" speedFactor="0.94" vaporized=""/>
    <tripinfo id="9" depart="11.00" departLane="E0_0" departPos="5.10" departSpeed="8.90" departDelay="3.00" arrival="112.00" arrivalLane="E3_0" arrivalPos="90.46" arrivalSpeed="30.84" duration="101.00" routeLength="1314.99" waitingTime="0.00" waitingCount="0" stopTime="0.00" timeLoss="24.87" rerouteNo="0" devices="tripinfo_9" vType="DEFAULT_VEHTYPE" speedFactor="1.09" vaporized=""/>
    <tripinfo id="10" depart="12.00" departLane="E0_0" departPos="5.10" departSpeed="3.23" departDelay="4.00" arrival="120.00" arrivalLane="E3_0" arrivalPos="90.46" arrivalSpeed="26.90" duration="108.00" routeLength="1314.99" waitingTime="0.00" waitingCount="0" stopTime="0.00" timeLoss="19.03" rerouteNo="0" devices="tripinfo_10" vType="DEFAULT_VEHTYPE" speedFactor="0.92" vaporized=""/>
    <tripinfo id="13" depart="19.00" departLane="E0_0" departPos="5.10" departSpeed="1.76" departDelay="8.00" arrival="126.00" arrivalLane="E3_0" arrivalPos="90.46" arrivalSpeed="27.23" duration="107.00" routeLength="1314.99" waitingTime="0.00" waitingCount="0" stopTime="0.00" timeLoss="18.61" rerouteNo="0" devices="tripinfo_13" vType="DEFAULT_VEHTYPE" speedFactor="0.93" vaporized=""/>
    <tripinfo id="15" depart="24.00" departLane="E0_0" departPos="5.10" departSpeed="1.05" departDelay="12.00" arrival="130.00" arrivalLane="E3_0" arrivalPos="90.46" arrivalSpeed="26.80" duration="106.00" routeLength="1314.99" waitingTime="0.00" waitingCount="0" stopTime="0.00" timeLoss="17.88" rerouteNo="0" devices="tripinfo_15" vType="DEFAULT_VEHTYPE" speedFactor="0.94" vaporized=""/>
    <tripinfo id="16" depart="27.00" departLane="E0_0" departPos="5.10" departSpeed="0.64" departDelay="13.00" arrival="131.00" arrivalLane="E3_0" arrivalPos="90.46" arrivalSpeed="28.93" duration="104.00" routeLength="1314.99" waitingTime="0.00" waitingCount="0" stopTime="0.00" timeLoss="28.07" rerouteNo="0" devices="tripinfo_16" vType="DEFAULT_VEHTYPE" speedFactor="1.08" vaporized=""/>
    <tripinfo id="17" depart="31.00" departLane="E0_0" departPos="5.10" departSpeed="6.29" departDelay="16.00" arrival="132.00" arrivalLane="E3_0" arrivalPos="90.46" arrivalSpeed="28.74" duration="101.00" routeLength="1314.99" waitingTime="0.00" waitingCount="0" stopTime="0.00" timeLoss="20.01" rerouteNo="0" devices="tripinfo_17" vType="DEFAULT_VEHTYPE" speedFactor="1.01" vaporized=""/>
    <tripinfo id="18" depart="33.00" departLane="E0_0" departPos="5.10" departSpeed="6.11" departDelay="17.00" arrival="134.00" arrivalLane="E3_0" arrivalPos="90.46" arrivalSpeed="30.08" duration="101.00" routeLength="1314.99" waitingTime="0.00" waitingCount="0" stopTime="0.00" timeLoss="20.98" rerouteNo="0" devices="tripinfo_18" vType="DEFAULT_VEHTYPE" speedFactor="1.03" vaporized=""/>
    <tripinfo id="19" depart="35.00" departLane="E0_0" departPos="5.10" departSpeed="6.80" departDelay="18.00" arrival="145.00" arrivalLane="E3_0" arrivalPos="90.46" arrivalSpeed="25.95" duration="110.00" routeLength="1314.99" waitingTime="0.00" waitingCount="0" stopTime="0.00" timeLoss="17.02" rerouteNo="0" devices="tripinfo_19" vType="DEFAULT_VEHTYPE" speedFactor="0.89" vaporized=""/>
    <tripinfo id="26" depart="49.00" departLane="E0_0" departPos="5.10" departSpeed="8.94" departDelay="28.00" arrival="146.00" arrivalLane="E3_0" arrivalPos="90.46" arrivalSpeed="28.84" duration="97.00" routeLength="1314.99" waitingTime="0.00" waitingCount="0" stopTime="0.00" timeLoss="23.53" rerouteNo="0" devices="tripinfo_26" vType="DEFAULT_VEHTYPE" speedFactor="1.12" vaporized=""/>
    <tripinfo id="29" depart="55.00" departLane="E0_0" departPos="5.10" departSpeed="5.19" departDelay="31.00" arrival="153.00" arrivalLane="E3_0" arrivalPos="90.46" arrivalSpeed="29.79" duration="98.00" routeLength="1314.99" waitingTime="0.00" waitingCount="0" stopTime="0.00" timeLoss="17.52" rerouteNo="0" devices="tripinfo_29" vType="DEFAULT_VEHTYPE" speedFactor="1.02" vaporized=""/>
    <tripinfo id="3" depart="4.00" departLane="E0_0" departPos="5.10" departSpeed="21.65" departDelay="0.00" arrival="163.00" arrivalLane="E3_0" arrivalPos="90.46" arrivalSpeed="24.91" duration="159.00" routeLength="1317.38" waitingTime="59.00" waitingCount="1" stopTime="0.00" timeLoss="79.64" rerouteNo="0" devices="tripinfo_3" vType="DEFAULT_VEHTYPE" speedFactor="1.08" vaporized=""/>
    <tripinfo id="30" depart="57.00" departLane="E0_0" departPos="5.10" departSpeed="5.85" departDelay="32.00" arrival="164.00" arrivalLane="E3_0" arrivalPos="90.46" arrivalSpeed="26.81" duration="107.00" routeLength="1314.99" waitingTime="0.00" waitingCount="0" stopTime="0.00" timeLoss="19.83" rerouteNo="0" devices="tripinfo_30" vType="DEFAULT_VEHTYPE" speedFactor="0.94" vaporized=""/>
    <tripinfo id="31" depart="59.00" departLane="E0_0" departPos="5.10" departSpeed="6.73" departDelay="33.00" arrival="166.00" arrivalLane="E3_0" arrivalPos="90.46" arrivalSpeed="28.74" duration="107.00" routeLength="1314.99" waitingTime="0.00" waitingCount="0" stopTime="0.00" timeLoss="32.16" rerouteNo="0" devices="tripinfo_31" vType="DEFAULT_VEHTYPE" speedFactor="1.10" vaporized=""/>
    <tripinfo id="32" depart="61.00" departLane="E0_0" departPos="5.10" departSpeed="5.66" departDelay="35.00" arrival="178.00" arrivalLane="E3_0" arrivalPos="90.46" arrivalSpeed="24.15" duration="117.00" routeLength="1314.99" waitingTime="0.00" waitingCount="0" stopTime="0.00" timeLoss="18.07" rerouteNo="0" devices="tripinfo_32" vType="DEFAULT_VEHTYPE" speedFactor="0.83" vaporized=""/>
    <tripinfo id="34" depart="66.00" departLane="E0_0" departPos="5.10" departSpeed="3.21" departDelay="35.00" arrival="179.00" arrivalLane="E3_0" arrivalPos="90.46" arrivalSpeed="26.96" duration="113.00" routeLength="1314.99" waitingTime="0.00" waitingCount="0" stopTime="0.00" timeLoss="35.93" rerouteNo="0" devices="tripinfo_34" vType="DEFAULT_VEHTYPE" speedFactor="1.07" vaporized=""/>
    <tripinfo id="6" depart="7.00" departLane="E0_0" departPos="5.10" departSpeed="14.30" departDelay="1.00" arrival="188.00" arrivalLane="E3_0" arrivalPos="90.46" arrivalSpeed="25.12" duration="181.00" routeLength="1317.38" waitingTime="74.00" waitingCount="2" stopTime="0.00" timeLoss="101.18" rerouteNo="0" devices="tripinfo_6" vType="DEFAULT_VEHTYPE" speedFactor="1.08" vaporized=""/>
    <tripinfo id="36" depart="71.00" departLane="E0_0" departPos="5.10" departSpeed="5.50" departDelay="33.00" arrival="196.00" arrivalLane="E3_0" arrivalPos="90.46" arrivalSpeed="22.94" duration="125.00" routeLength="1314.99" waitingTime="0.00" waitingCount="0" stopTime="0.00" timeLoss="18.77" rerouteNo="0" devices="tripinfo_36" vType="DEFAULT_VEHTYPE" speedFactor="0.77" vaporized=""/>
    <tripinfo id="38" depart="75.00" departLane="E0_0" departPos="5.10" departSpeed="4.68" departDelay="37.00" arrival="198.00" arrivalLane="E3_0" arrivalPos="90.46" arrivalSpeed="26.41" duration="123.00" routeLength="1314.99" waitingTime="0.00" waitingCount="0" stopTime="0.00" timeLoss="42.37" rerouteNo="0" devices="tripinfo_38" vType="DEFAULT_VEHTYPE" speedFactor="1.02" vaporized=""/>
    <tripinfo id="39" depart="77.00" departLane="E0_0" departPos="5.10" departSpeed="4.19" departDelay="38.00" arrival="199.00" arrivalLane="E3_0" arrivalPos="90.46" arrivalSpeed="25.33" duration="122.00" routeLength="1314.99" waitingTime="0.00" waitingCount="0" stopTime="0.00" timeLoss="27.92" rerouteNo="0" devices="tripinfo_39" vType="DEFAULT_VEHTYPE" speedFactor="0.88" vaporized=""/>
    <tripinfo id="42" depart="86.00" departLane="E0_0" departPos="5.10" departSpeed="6.43" departDelay="45.00" arrival="200.00" arrivalLane="E3_0" arrivalPos="90.46" arrivalSpeed="27.11" duration="114.00" routeLength="1314.99" waitingTime="0.00" waitingCount="0" stopTime="0.00" timeLoss="35.73" rerouteNo="0" devices="tripinfo_42" vType="DEFAULT_VEHTYPE" speedFactor="1.05" vaporized=""/>
    <tripinfo id="43" depart="88.00" departLane="E0_0" departPos="5.10" departSpeed="7.21" departDelay="46.00" arrival="202.00" arrivalLane="E3_0" arrivalPos="90.46" arrivalSpeed="27.82" duration="114.00" routeLength="1314.99" waitingTime="0.00" waitingCount="0" stopTime="0.00" timeLoss="31.85" rerouteNo="0" devices="tripinfo_43" vType="DEFAULT_VEHTYPE" speedFactor="1.00" vaporized=""/>
    <tripinfo id="44" depart="90.00" departLane="E0_0" departPos="5.10" departSpeed="8.25" departDelay="46.00" arrival="203.00" arrivalLane="E3_0" arrivalPos="90.46" arrivalSpeed="27.27" duration="113.00" routeLength="1314.99" waitingTime="0.00" waitingCount="0" stopTime="0.00" timeLoss="38.41" rerouteNo="0" devices="tripinfo_44" vType="DEFAULT_VEHTYPE" speedFactor="1.10" vaporized=""/>
    <tripinfo id="45" depart="91.00" departLane="E0_0" departPos="5.10" departSpeed="4.01" departDelay="47.00" arrival="205.00" arrivalLane="E3_0" arrivalPos="90.46" arrivalSpeed="26.12" duration="114.00" routeLength="1314.99" waitingTime="0.00" waitingCount="0" stopTime="0.00" timeLoss="22.72" rerouteNo="0" devices="tripinfo_45" vType="DEFAULT_VEHTYPE" speedFactor="0.90" vaporized=""/>
    <tripinfo id="46" depart="93.00" departLane="E0_0" departPos="5.10" departSpeed="0.52" departDelay="48.00" arrival="206.00" arrivalLane="E3_0" arrivalPos="90.46" arrivalSpeed="27.84" duration="113.00" routeLength="1314.99" waitingTime="0.00" waitingCount="0" stopTime="0.00" timeLoss="27.90" rerouteNo="0" devices="tripinfo_46" vType="DEFAULT_VEHTYPE" speedFactor="0.96" vaporized=""/>
    <tripinfo id="50" depart="104.00" departLane="E0_0" departPos="5.10" departSpeed="6.05" departDelay="51.00" arrival="208.00" arrivalLane="E3_0" arrivalPos="90.46" arrivalSpeed="29.72" duration="104.00" routeLength="1314.99" waitingTime="0.00" waitingCount="0" stopTime="0.00" timeLoss="21.37" rerouteNo="0" devices="tripinfo_50" vType="DEFAULT_VEHTYPE" speedFactor="1.00" vaporized=""/>
    <tripinfo id="51" depart="106.00" departLane="E0_0" departPos="5.10" departSpeed="6.53" departDelay="52.00" arrival="209.00" arrivalLane="E3_0" arrivalPos="90.46" arrivalSpeed="29.02" duration="103.00" routeLength="1314.99" waitingTime="0.00" waitingCount="0" stopTime="0.00" timeLoss="19.73" rerouteNo="0" devices="tripinfo_51" vType="DEFAULT_VEHTYPE" speedFactor="0.99" vaporized=""/>
    <tripinfo id="8" depart="9.00" departLane="E0_0" departPos="5.10" departSpeed="7.90" departDelay="2.00" arrival="218.00" arrivalLane="E3_0" arrivalPos="90.46" arrivalSpeed="23.75" duration="209.00" routeLength="1317.38" waitingTime="89.00" waitingCount="3" stopTime="0.00" timeLoss="125.23" rerouteNo="0" devices="tripinfo_8" vType="DEFAULT_VEHTYPE" speedFactor="1.02" vaporized=""/>
    <tripinfo id="56" depart="116.00" departLane="E0_0" departPos="5.10" departSpeed="1.23" departDelay="59.00" arrival="224.00" arrivalLane="E3_0" arrivalPos="90.46" arrivalSpeed="27.41" duration="108.00" routeLength="1314.99" waitingTime="0.00" waitingCount="0" stopTime="0.00" timeLoss="19.61" rerouteNo="0" devices="tripinfo_56" vType="DEFAULT_VEHTYPE" speedFactor="0.93" vaporized=""/>
    <tripinfo id="62" depart="133.00" departLane="E0_0" departPos="5.10" departSpeed="7.23" departDelay="71.00" arrival="240.00" arrivalLane="E3_0" arrivalPos="90.46" arrivalSpeed="26.01" duration="107.00" routeLength="1314.99" waitingTime="0.00" waitingCount="0" stopTime="0.00" timeLoss="15.79" rerouteNo="0" devices="tripinfo_62" vType="DEFAULT_VEHTYPE" speedFactor="0.90" vaporized=""/>
    <tripinfo id="65" depart="138.00" departLane="E0_0" departPos="5.10" departSpeed="0.64" departDelay="74.00" arrival="242.00" arrivalLane="E3_0" arrivalPos="90.46" arrivalSpeed="28.22" duration="104.00" routeLength="1314.99" waitingTime="0.00" waitingCount="0" stopTime="0.00" timeLoss="19.33" rerouteNo="0" devices="tripinfo_65" vType="DEFAULT_VEHTYPE" speedFactor="0.98" vaporized=""/>
    <tripinfo id="66" depart="142.00" departLane="E0_0" departPos="5.10" departSpeed="3.19" departDelay="78.00" arrival="243.00" arrivalLane="E3_0" arrivalPos="90.46" arrivalSpeed="28.41" duration="101.00" routeLength="1314.99" waitingTime="0.00" waitingCount="0" stopTime="0.00" timeLoss="17.22" rerouteNo="0" devices="tripinfo_66" vType="DEFAULT_VEHTYPE" speedFactor="0.98" vaporized=""/>
    <tripinfo id="68" depart="147.00" departLane="E0_0" departPos="5.10" departSpeed="5.86" departDelay="79.00" arrival="251.00" arrivalLane="E3_0" arrivalPos="90.46" arrivalSpeed="28.24" duration="104.00" routeLength="1314.99" waitingTime="0.00" waitingCount="0" stopTime="0.00" timeLoss="16.25" rerouteNo="0" devices="tripinfo_68" vType="DEFAULT_VEHTYPE" speedFactor="0.94" vaporized=""/>
    <tripinfo id="75" depart="162.00" departLane="E0_0" departPos="5.10" departSpeed="5.70" departDelay="85.00" arrival="252.00" arrivalLane="E3_0" arrivalPos="90.46" arrivalSpeed="30.32" duration="90.00" routeLength="1314.99" waitingTime="0.00" waitingCount="0" stopTime="0.00" timeLoss="15.59" rerouteNo="0" devices="tripinfo_75" vType="DEFAULT_VEHTYPE" speedFactor="1.10" vaporized=""/>
    <tripinfo id="76" depart="164.00" departLane="E0_0" departPos="5.10" departSpeed="5.48" departDelay="86.00" arrival="254.00" arrivalLane="E3_0" arrivalPos="90.46" arrivalSpeed="33.08" duration="90.00" routeLength="1314.99" waitingTime="0.00" waitingCount="0" stopTime="0.00" timeLoss="17.79" rerouteNo="0" devices="tripinfo_76" vType="DEFAULT_VEHTYPE" speedFactor="1.14" vaporized=""/>
    <tripinfo id="11" depart="15.00" departLane="E0_0" departPos="5.10" departSpeed="5.09" departDelay="6.00" arrival="264.00" arrivalLane="E3_0" arrivalPos="90.46" arrivalSpeed="24.01" duration="249.00" routeLength="1317.38" waitingTime="129.00" waitingCount="4" stopTime="0.00" timeLoss="172.44" rerouteNo="0" devices="tripinfo_11" vType="DEFAULT_VEHTYPE" speedFactor="1.12" vaporized=""/>
    <tripinfo id="80" depart="172.00" departLane="E0_0" departPos="5.10" departSpeed="6.31" departDelay="86.00" arrival="266.00" arrivalLane="E3_0" arrivalPos="90.46" arrivalSpeed="29.12" duration="94.00" routeLength="1314.99" waitingTime="0.00" waitingCount="0" stopTime="0.00" timeLoss="17.52" rerouteNo="0" devices="tripinfo_80" vType="DEFAULT_VEHTYPE" speedFactor="1.08" vaporized=""/>
    <tripinfo id="83" depart="177.00" departLane="E0_0" departPos="5.10" departSpeed="3.32" departDelay="86.00" arrival="272.00" arrivalLane="E3_0" arrivalPos="90.46" arrivalSpeed="31.81" duration="95.00" routeLength="1314.99" waitingTime="0.00" waitingCount="0" stopTime="0.00" timeLoss="18.08" rerouteNo="0" devices="tripinfo_83" vType="DEFAULT_VEHTYPE" speedFactor="1.06" vaporized=""/>
    <tripinfo id="86" depart="184.00" departLane="E0_0" departPos="5.10" departSpeed="4.79" departDelay="90.00" arrival="282.00" arrivalLane="E3_0" arrivalPos="90.46" arrivalSpeed="30.26" duration="98.00" routeLength="1314.99" waitingTime="0.00" waitingCount="0" stopTime="0.00" timeLoss="17.93" rerouteNo="0" devices="tripinfo_86" vType="DEFAULT_VEHTYPE" speedFactor="1.02" vaporized=""/>
    <tripinfo id="89" depart="191.00" departLane="E0_0" departPos="5.10" departSpeed="3.19" departDelay="94.00" arrival="284.00" arrivalLane="E3_0" arrivalPos="90.46" arrivalSpeed="34.44" duration="93.00" routeLength="1314.99" waitingTime="0.00" waitingCount="0" stopTime="0.00" timeLoss="22.84" rerouteNo="0" devices="tripinfo_89" vType="DEFAULT_VEHTYPE" speedFactor="1.18" vaporized=""/>
    <tripinfo id="12" depart="17.00" departLane="E0_0" departPos="5.10" departSpeed="4.46" departDelay="6.00" arrival="294.00" arrivalLane="E3_0" arrivalPos="90.46" arrivalSpeed="24.77" duration="277.00" routeLength="1317.38" waitingTime="137.00" waitingCount="5" stopTime="0.00" timeLoss="181.49" rerouteNo="0" devices="tripinfo_12" vType="DEFAULT_VEHTYPE" speedFactor="0.90" vaporized=""/>
    <tripinfo id="92" depart="198.00" departLane="E0_0" departPos="5.10" departSpeed="3.79" departDelay="100.00" arrival="297.00" arrivalLane="E3_0" arrivalPos="90.46" arrivalSpeed="29.13" duration="99.00" routeLength="1314.99" waitingTime="0.00" waitingCount="0" stopTime="0.00" timeLoss="15.20" rerouteNo="0" devices="tripinfo_92" vType="DEFAULT_VEHTYPE" speedFactor="0.98" vaporized=""/>
    <tripinfo id="93" depart="200.00" departLane="E0_0" departPos="5.10" departSpeed="2.65" departDelay="101.00" arrival="304.00" arrivalLane="E3_0" arrivalPos="90.46" arrivalSpeed="27.74" duration="104.00" routeLength="1314.99" waitingTime="0.00" waitingCount="0" stopTime="0.00" timeLoss="16.84" rerouteNo="0" devices="tripinfo_93" vType="DEFAULT_VEHTYPE" speedFactor="0.94" vaporized=""/>
    <tripinfo id="94" depart="203.00" departLane="E0_0" departPos="5.10" departSpeed="3.68" departDelay="104.00" arrival="305.00" arrivalLane="E3_0" arrivalPos="90.46" arrivalSpeed="28.64" duration="102.00" routeLength="1314.99" waitingTime="0.00" waitingCount="0" stopTime="0.00" timeLoss="23.01" rerouteNo="0" devices="tripinfo_94" vType="DEFAULT_VEHTYPE" speedFactor="1.03" vaporized=""/>
    <tripinfo id="96" depart="208.00" departLane="E0_0" departPos="5.10" departSpeed="6.77" departDelay="108.00" arrival="317.00" arrivalLane="E3_0" arrivalPos="90.46" arrivalSpeed="26.07" duration="109.00" routeLength="1314.99" waitingTime="0.00" waitingCount="0" stopTime="0.00" timeLoss="16.24" rerouteNo="0" devices="tripinfo_96" vType="DEFAULT_VEHTYPE" speedFactor="0.89" vaporized=""/>
    <tripinfo id="100" depart="215.00" departLane="E0_0" departPos="5.10" departSpeed="3.73" departDelay="113.00" arrival="318.00" arrivalLane="E3_0" arrivalPos="90.46" arrivalSpeed="27.21" duration="103.00" routeLength="1314.99" waitingTime="0.00" waitingCount="0" stopTime="0.00" timeLoss="28.66" rerouteNo="0" devices="tripinfo_100" vType="DEFAULT_VEHTYPE" speedFactor="1.10" vaporized=""/>
    <tripinfo id="14" depart="22.00" departLane="E0_0" departPos="5.10" departSpeed="3.24" departDelay="10.00" arrival="327.00" arrivalLane="E3_0" arrivalPos="90.46" arrivalSpeed="24.77" duration="305.00" routeLength="1317.38" waitingTime="162.00" waitingCount="6" stopTime="0.00" timeLoss="222.91" rerouteNo="0" devices="tripinfo_14" vType="DEFAULT_VEHTYPE" speedFactor="1.04" vaporized=""/>
    <tripinfo id="20" depart="37.00" departLane="E0_0" departPos="5.10" departSpeed="7.82" departDelay="20.00" arrival="330.00" arrivalLane="E3_0" arrivalPos="90.46" arrivalSpeed="26.44" duration="293.00" routeLength="1317.38" waitingTime="149.00" waitingCount="6" stopTime="0.00" timeLoss="207.50" rerouteNo="0" devices="tripinfo_20" vType="DEFAULT_VEHTYPE" speedFactor="1.01" vaporized=""/>
    <tripinfo id="102" depart="220.00" departLane="E0_0" departPos="5.10" departSpeed="6.54" departDelay="115.00" arrival="337.00" arrivalLane="E3_0" arrivalPos="90.46" arrivalSpeed="24.33" duration="117.00" routeLength="1314.99" waitingTime="0.00" waitingCount="0" stopTime="0.00" timeLoss="18.54" rerouteNo="0" devices="tripinfo_102" vType="DEFAULT_VEHTYPE" speedFactor="0.84" vaporized=""/>
    <tripinfo id="104" depart="224.00" departLane="E0_0" departPos="5.10" departSpeed="6.82" departDelay="118.00" arrival="338.00" arrivalLane="E3_0" arrivalPos="90.46" arrivalSpeed="27.29" duration="114.00" routeLength="1314.99" waitingTime="0.00" waitingCount="0" stopTime="0.00" timeLoss="34.51" rerouteNo="0" devices="tripinfo_104" vType="DEFAULT_VEHTYPE" speedFactor="1.04" vaporized=""/>
    <tripinfo id="106" depart="228.00" departLane="E0_0" departPos="5.10" departSpeed="7.79" departDelay="121.00" arrival="339.00" arrivalLane="E3_0" arrivalPos="90.46" arrivalSpeed="27.67" duration="111.00" routeLength="1314.99" waitingTime="0.00" waitingCount="0" stopTime="0.00" timeLoss="25.45" rerouteNo="0" devices="tripinfo_106" vType="DEFAULT_VEHTYPE" speedFactor="0.95" vaporized=""/>
    <tripinfo id="110" depart="236.00" departLane="E0_0" departPos="5.10" departSpeed="6.60" departDelay="124.00" arrival="341.00" arrivalLane="E3_0" arrivalPos="90.46" arrivalSpeed="29.47" duration="105.00" routeLength="1314.99" waitingTime="0.00" waitingCount="0" stopTime="0.00" timeLoss="24.11" rerouteNo="0" devices="tripinfo_110" vType="DEFAULT_VEHTYPE" speedFactor="1.01" vaporized=""/>
    <tripinfo id="111" depart="238.00" departLane="E0_0" departPos="5.10" departSpeed="5.77" departDelay="125.00" arrival="342.00" arrivalLane="E3_0" arrivalPos="90.46" arrivalSpeed="28.15" duration="104.00" routeLength="1314.99" waitingTime="0.00" waitingCount="0" stopTime="0.00" timeLoss="31.73" rerouteNo="0" devices="tripinfo_111" vType="DEFAULT_VEHTYPE" speedFactor="1.13" vaporized=""/>
    <tripinfo id="113" depart="242.00" departLane="E0_0" departPos="5.10" departSpeed="3.53" departDelay="127.00" arrival="357.00" arrivalLane="E3_0" arrivalPos="90.46" arrivalSpeed="25.96" duration="115.00" routeLength="1314.99" waitingTime="0.00" waitingCount="0" stopTime="0.00" timeLoss="22.36" rerouteNo="0" devices="tripinfo_113" vType="DEFAULT_VEHTYPE" speedFactor="0.89" vaporized=""/>
    <tripinfo id="114" depart="244.00" departLane="E0_0" departPos="5.10" departSpeed="0.83" departDelay="129.00" arrival="359.00" arrivalLane="E3_0" arrivalPos="90.46" arrivalSpeed="28.39" duration="115.00" routeLength="1314.99" waitingTime="0.00" waitingCount="0" stopTime="0.00" timeLoss="29.47" rerouteNo="0" devices="tripinfo_114" vType="DEFAULT_VEHTYPE" speedFactor="0.97" vaporized=""/>
    <tripinfo id="115" depart="247.00" departLane="E0_0" departPos="5.10" departSpeed="2.43" departDelay="130.00" arrival="360.00" arrivalLane="E3_0" arrivalPos="90.46" arrivalSpeed="30.20" duration="113.00" routeLength="1314.99" waitingTime="0.00" waitingCount="0" stopTime="0.00" timeLoss="34.05" rerouteNo="0" devices="tripinfo_115" vType="DEFAULT_VEHTYPE" speedFactor="1.04" vaporized=""/>
    <tripinfo id="120" depart="259.00" departLane="E0_0" departPos="5.10" departSpeed="1.87" departDelay="129.00" arrival="361.00" arrivalLane="E3_0" arrivalPos="90.46" arrivalSpeed="29.79" duration="102.00" routeLength="1314.99" waitingTime="0.00" waitingCount="0" stopTime="0.00" timeLoss="20.67" rerouteNo="0" devices="tripinfo_120" vType="DEFAULT_VEHTYPE" speedFactor="1.01" vaporized=""/>
    <tripinfo id="122" depart="265.00" departLane="E0_0" departPos="5.10" departSpeed="3.80" departDelay="132.00" arrival="368.00" arrivalLane="E3_0" arrivalPos="90.46" arrivalSpeed="29.15" duration="103.00" routeLength="1314.99" waitingTime="0.00" waitingCount="0" stopTime="0.00" timeLoss="20.01" rerouteNo="0" devices="tripinfo_122" vType="DEFAULT_VEHTYPE" speedFactor="1.00" vaporized=""/>
    <tripinfo id="21" depart="39.00" departLane="E0_0" departPos="5.10" departSpeed="8.84" departDelay="22.00" arrival="374.00" arrivalLane="E3_0" arrivalPos="90.46" arrivalSpeed="22.91" duration="335.00" routeLength="1317.38" waitingTime="175.00" waitingCount="7" stopTime="0.00" timeLoss="236.93" rerouteNo="0" devices="tripinfo_21" vType="DEFAULT_VEHTYPE" speedFactor="0.87" vaporized=""/>
    <tripinfo id="22" depart="40.00" departLane="E0_0" departPos="5.10" departSpeed="3.13" departDelay="23.00" arrival="376.00" arrivalLane="E3_0" arrivalPos="90.46" arrivalSpeed="24.17" duration="336.00" routeLength="1317.38" waitingTime="168.00" waitingCount="7" stopTime="0.00" timeLoss="253.17" rerouteNo="0" devices="tripinfo_22" vType="DEFAULT_VEHTYPE" speedFactor="1.03" vaporized=""/>
    <tripinfo id="23" depart="43.00" departLane="E0_0" departPos="5.10" departSpeed="6.19" departDelay="25.00" arrival="378.00" arrivalLane="E3_0" arrivalPos="90.46" arrivalSpeed="24.61" duration="335.00" routeLength="1317.38" waitingTime="165.00" waitingCount="7" stopTime="0.00" timeLoss="259.50" rerouteNo="0" devices="tripinfo_23" vType="DEFAULT_VEHTYPE" speedFactor="1.13" vaporized=""/>
    <tripinfo id="24" depart="45.00" departLane="E0_0" departPos="5.10" departSpeed="7.27" departDelay="27.00" arrival="381.00" arrivalLane="E3_0" arrivalPos="90.46" arrivalSpeed="24.35" duration="336.00" routeLength="1317.38" waitingTime="161.00" waitingCount="7" stopTime="0.00" timeLoss="240.09" rerouteNo="0" devices="tripinfo_24" vType="DEFAULT_VEHTYPE" speedFactor="0.89" vaporized=""/>
    <tripinfo id="25" depart="47.00" departLane="E0_0" departPos="5.10" departSpeed="7.94" departDelay="27.00" arrival="383.00" arrivalLane="E3_0" arrivalPos="90.46" arrivalSpeed="24.28" duration="336.00" routeLength="1317.38" waitingTime="160.00" waitingCount="8" stopTime="0.00" timeLoss="261.79" rerouteNo="0" devices="tripinfo_25" vType="DEFAULT_VEHTYPE" speedFactor="1.15" vaporized=""/>
    <tripinfo id="27" depart="50.00" departLane="E0_0" departPos="5.10" departSpeed="4.44" departDelay="28.00" arrival="385.00" arrivalLane="E3_0" arrivalPos="90.46" arrivalSpeed="25.13" duration="335.00" routeLength="1317.38" waitingTime="159.00" waitingCount="8" stopTime="0.00" timeLoss="249.23" rerouteNo="0" devices="tripinfo_27" vType="DEFAULT_VEHTYPE" speedFactor="0.99" vaporized=""/>
    <tripinfo id="124" depart="270.00" departLane="E0_0" departPos="5.10" departSpeed="6.06" departDelay="134.00" arrival="392.00" arrivalLane="E3_0" arrivalPos="90.46" arrivalSpeed="23.73" duration="122.00" routeLength="1314.99" waitingTime="0.00" waitingCount="0" stopTime="0.00" timeLoss="20.04" rerouteNo="0" devices="tripinfo_124" vType="DEFAULT_VEHTYPE" speedFactor="0.80" vaporized=""/>
    <tripinfo id="126" depart="274.00" departLane="E0_0" departPos="5.10" departSpeed="1.99" departDelay="137.00" arrival="393.00" arrivalLane="E3_0" arrivalPos="90.46" arrivalSpeed="24.32" duration="119.00" routeLength="1314.99" waitingTime="0.00" waitingCount="0" stopTime="0.00" timeLoss="35.01" rerouteNo="0" devices="tripinfo_126" vType="DEFAULT_VEHTYPE" speedFactor="0.97" vaporized=""/>
    <tripinfo id="127" depart="277.00" departLane="E0_0" departPos="5.10" departSpeed="3.30" departDelay="140.00" arrival="395.00" arrivalLane="E3_0" arrivalPos="90.46" arrivalSpeed="27.13" duration="118.00" routeLength="1314.99" waitingTime="0.00" waitingCount="0" stopTime="0.00" timeLoss="27.75" rerouteNo="0" devices="tripinfo_127" vType="DEFAULT_VEHTYPE" speedFactor="0.91" vaporized=""/>
    <tripinfo id="128" depart="280.00" departLane="E0_0" departPos="5.10" departSpeed="7.06" departDelay="142.00" arrival="396.00" arrivalLane="E3_0" arrivalPos="90.46" arrivalSpeed="26.94" duration="116.00" routeLength="1314.99" waitingTime="0.00" waitingCount="0" stopTime="0.00" timeLoss="43.50" rerouteNo="0" devices="tripinfo_128" vType="DEFAULT_VEHTYPE" speedFactor="1.13" vaporized=""/>
    <tripinfo id="129" depart="282.00" departLane="E0_0" departPos="5.10" departSpeed="6.86" departDelay="144.00" arrival="398.00" arrivalLane="E3_0" arrivalPos="90.46" arrivalSpeed="28.83" duration="116.00" routeLength="1314.99" waitingTime="0.00" waitingCount="0" stopTime="0.00" timeLoss="32.25" rerouteNo="0" devices="tripinfo_129" vType="DEFAULT_VEHTYPE" speedFactor="0.98" vaporized=""/>