<?xml version="1.0" encoding="UTF-8"?>

<!-- generated on 2023-04-28 21:51:44 by Eclipse SUMO sumo Version 1.16.0
<configuration xmlns:xsi="http://www.w3.org/2001/XMLSchema-instance" xsi:noNamespaceSchemaLocation="http://sumo.dlr.de/xsd/sumoConfiguration.xsd">

    <input>
        <net-file value="C:\Users\Local_Man\Desktop\Stolen%20Music\school%20stuff%20for%20college\Semester%2015%20(UH%20Graduate%20School)\COSC%206364%20Nikolaos\SUMO_Project\COSC6364_Project\configurations\maps\Braess_Homebrew_fixed1.net.xml"/>
        <route-files value="./configurations/Rounds/Braess_Homebrew_fixed1.net.xml-test-1/Macroscopic_DUE/020/Trips_File_020.rou.xml"/>
    </input>

    <output>
        <summary-output value="./configurations/Rounds/Braess_Homebrew_fixed1.net.xml-test-1/Macroscopic_DUE/020/summary.xml"/>
        <tripinfo-output value="./configurations/Rounds/Braess_Homebrew_fixed1.net.xml-test-1/Macroscopic_DUE/020/trips.trips.xml"/>
        <statistic-output value="./configurations/Rounds/Braess_Homebrew_fixed1.net.xml-test-1/Macroscopic_DUE/020/stats_output.xml"/>
    </output>

    <time>
        <begin value="0"/>
    </time>

    <report>
        <log value="./configurations/Rounds/Braess_Homebrew_fixed1.net.xml-test-1/Macroscopic_DUE/020/log.sumo.log"/>
        <no-step-log value="true"/>
    </report>

    <gui_only>
        <quit-on-end value="true"/>
    </gui_only>

</configuration>
-->

<tripinfos xmlns:xsi="http://www.w3.org/2001/XMLSchema-instance" xsi:noNamespaceSchemaLocation="http://sumo.dlr.de/xsd/tripinfo_file.xsd">
    <tripinfo id="2" depart="1.00" departLane="E0_0" departPos="5.10" departSpeed="19.50" departDelay="0.00" arrival="95.00" arrivalLane="E3_0" arrivalPos="90.46" arrivalSpeed="28.39" duration="94.00" routeLength="1314.99" waitingTime="0.00" waitingCount="0" stopTime="0.00" timeLoss="9.94" rerouteNo="0" devices="tripinfo_2" vType="DEFAULT_VEHTYPE" speedFactor="0.98" vaporized=""/>
    <tripinfo id="4" depart="5.00" departLane="E0_0" departPos="5.10" departSpeed="18.97" departDelay="0.00" arrival="97.00" arrivalLane="E3_0" arrivalPos="90.46" arrivalSpeed="31.67" duration="92.00" routeLength="1314.99" waitingTime="0.00" waitingCount="0" stopTime="0.00" timeLoss="23.20" rerouteNo="0" devices="tripinfo_4" vType="DEFAULT_VEHTYPE" speedFactor="1.20" vaporized=""/>
    <tripinfo id="5" depart="6.00" departLane="E0_0" departPos="5.10" departSpeed="17.18" departDelay="0.00" arrival="98.00" arrivalLane="E3_0" arrivalPos="90.46" arrivalSpeed="31.12" duration="92.00" routeLength="1314.99" waitingTime="0.00" waitingCount="0" stopTime="0.00" timeLoss="13.31" rerouteNo="0" devices="tripinfo_5" vType="DEFAULT_VEHTYPE" speedFactor="1.05" vaporized=""/>
    <tripinfo id="7" depart="8.00" departLane="E0_0" departPos="5.10" departSpeed="11.11" departDelay="1.00" arrival="110.00" arrivalLane="E3_0" arrivalPos="90.46" arrivalSpeed="27.68" duration="102.00" routeLength="1314.99" waitingTime="0.00" waitingCount="0" stopTime="0.00" timeLoss="14.33" rerouteNo="0" devices="tripinfo_7" vType="DEFAULT_VEHTYPE" speedFactor="0.94" vaporized=""/>
    <tripinfo id="9" depart="11.00" departLane="E0_0" departPos="5.10" departSpeed="8.90" departDelay="3.00" arrival="112.00" arrivalLane="E3_0" arrivalPos="90.46" arrivalSpeed="30.84" duration="101.00" routeLength="1314.99" waitingTime="0.00" waitingCount="0" stopTime="0.00" timeLoss="24.87" rerouteNo="0" devices="tripinfo_9" vType="DEFAULT_VEHTYPE" speedFactor="1.09" vaporized=""/>
    <tripinfo id="10" depart="12.00" departLane="E0_0" departPos="5.10" departSpeed="3.23" departDelay="4.00" arrival="120.00" arrivalLane="E3_0" arrivalPos="90.46" arrivalSpeed="26.90" duration="108.00" routeLength="1314.99" waitingTime="0.00" waitingCount="0" stopTime="0.00" timeLoss="19.02" rerouteNo="0" devices="tripinfo_10" vType="DEFAULT_VEHTYPE" speedFactor="0.92" vaporized=""/>
    <tripinfo id="13" depart="19.00" departLane="E0_0" departPos="5.10" departSpeed="1.76" departDelay="8.00" arrival="127.00" arrivalLane="E3_0" arrivalPos="90.46" arrivalSpeed="26.95" duration="108.00" routeLength="1314.99" waitingTime="0.00" waitingCount="0" stopTime="0.00" timeLoss="18.70" rerouteNo="0" devices="tripinfo_13" vType="DEFAULT_VEHTYPE" speedFactor="0.93" vaporized=""/>
    <tripinfo id="15" depart="24.00" departLane="E0_0" departPos="5.10" departSpeed="1.05" departDelay="12.00" arrival="129.00" arrivalLane="E3_0" arrivalPos="90.46" arrivalSpeed="26.80" duration="105.00" routeLength="1314.99" waitingTime="0.00" waitingCount="0" stopTime="0.00" timeLoss="17.69" rerouteNo="0" devices="tripinfo_15" vType="DEFAULT_VEHTYPE" speedFactor="0.94" vaporized=""/>
    <tripinfo id="16" depart="27.00" departLane="E0_0" departPos="5.10" departSpeed="0.64" departDelay="13.00" arrival="131.00" arrivalLane="E3_0" arrivalPos="90.46" arrivalSpeed="30.01" duration="104.00" routeLength="1314.99" waitingTime="0.00" waitingCount="0" stopTime="0.00" timeLoss="27.90" rerouteNo="0" devices="tripinfo_16" vType="DEFAULT_VEHTYPE" speedFactor="1.08" vaporized=""/>
    <tripinfo id="17" depart="31.00" departLane="E0_0" departPos="5.10" departSpeed="6.29" departDelay="16.00" arrival="132.00" arrivalLane="E3_0" arrivalPos="90.46" arrivalSpeed="30.29" duration="101.00" routeLength="1314.99" waitingTime="0.00" waitingCount="0" stopTime="0.00" timeLoss="19.78" rerouteNo="0" devices="tripinfo_17" vType="DEFAULT_VEHTYPE" speedFactor="1.01" vaporized=""/>
    <tripinfo id="18" depart="33.00" departLane="E0_0" departPos="5.10" departSpeed="6.11" departDelay="17.00" arrival="134.00" arrivalLane="E3_0" arrivalPos="90.46" arrivalSpeed="30.76" duration="101.00" routeLength="1314.99" waitingTime="0.00" waitingCount="0" stopTime="0.00" timeLoss="20.77" rerouteNo="0" devices="tripinfo_18" vType="DEFAULT_VEHTYPE" speedFactor="1.03" vaporized=""/>
    <tripinfo id="19" depart="35.00" departLane="E0_0" departPos="5.10" departSpeed="6.80" departDelay="18.00" arrival="144.00" arrivalLane="E3_0" arrivalPos="90.46" arrivalSpeed="26.43" duration="109.00" routeLength="1314.99" waitingTime="0.00" waitingCount="0" stopTime="0.00" timeLoss="16.88" rerouteNo="0" devices="tripinfo_19" vType="DEFAULT_VEHTYPE" speedFactor="0.89" vaporized=""/>
    <tripinfo id="26" depart="49.00" departLane="E0_0" departPos="5.10" departSpeed="8.94" departDelay="28.00" arrival="145.00" arrivalLane="E3_0" arrivalPos="90.46" arrivalSpeed="28.43" duration="96.00" routeLength="1314.99" waitingTime="0.00" waitingCount="0" stopTime="0.00" timeLoss="22.90" rerouteNo="0" devices="tripinfo_26" vType="DEFAULT_VEHTYPE" speedFactor="1.12" vaporized=""/>
    <tripinfo id="29" depart="55.00" departLane="E0_0" departPos="5.10" departSpeed="5.19" departDelay="31.00" arrival="153.00" arrivalLane="E3_0" arrivalPos="90.46" arrivalSpeed="29.58" duration="98.00" routeLength="1314.99" waitingTime="0.00" waitingCount="0" stopTime="0.00" timeLoss="17.83" rerouteNo="0" devices="tripinfo_29" vType="DEFAULT_VEHTYPE" speedFactor="1.02" vaporized=""/>
    <tripinfo id="3" depart="4.00" departLane="E0_0" departPos="5.10" departSpeed="21.65" departDelay="0.00" arrival="163.00" arrivalLane="E3_0" arrivalPos="90.46" arrivalSpeed="26.14" duration="159.00" routeLength="1317.38" waitingTime="59.00" waitingCount="1" stopTime="0.00" timeLoss="79.44" rerouteNo="0" devices="tripinfo_3" vType="DEFAULT_VEHTYPE" speedFactor="1.08" vaporized=""/>
    <tripinfo id="30" depart="57.00" departLane="E0_0" departPos="5.10" departSpeed="5.85" departDelay="32.00" arrival="164.00" arrivalLane="E3_0" arrivalPos="90.46" arrivalSpeed="26.64" duration="107.00" routeLength="1314.99" waitingTime="0.00" waitingCount="0" stopTime="0.00" timeLoss="19.78" rerouteNo="0" devices="tripinfo_30" vType="DEFAULT_VEHTYPE" speedFactor="0.94" vaporized=""/>
    <tripinfo id="31" depart="59.00" departLane="E0_0" departPos="5.10" departSpeed="6.73" departDelay="33.00" arrival="166.00" arrivalLane="E3_0" arrivalPos="90.46" arrivalSpeed="30.30" duration="107.00" routeLength="1314.99" waitingTime="0.00" waitingCount="0" stopTime="0.00" timeLoss="31.98" rerouteNo="0" devices="tripinfo_31" vType="DEFAULT_VEHTYPE" speedFactor="1.10" vaporized=""/>
    <tripinfo id="32" depart="61.00" departLane="E0_0" departPos="5.10" departSpeed="5.66" departDelay="35.00" arrival="179.00" arrivalLane="E3_0" arrivalPos="90.46" arrivalSpeed="24.15" duration="118.00" routeLength="1314.99" waitingTime="0.00" waitingCount="0" stopTime="0.00" timeLoss="19.52" rerouteNo="0" devices="tripinfo_32" vType="DEFAULT_VEHTYPE" speedFactor="0.83" vaporized=""/>
    <tripinfo id="34" depart="66.00" departLane="E0_0" departPos="5.10" departSpeed="3.21" departDelay="35.00" arrival="180.00" arrivalLane="E3_0" arrivalPos="90.46" arrivalSpeed="27.13" duration="114.00" routeLength="1314.99" waitingTime="0.00" waitingCount="0" stopTime="0.00" timeLoss="37.18" rerouteNo="0" devices="tripinfo_34" vType="DEFAULT_VEHTYPE" speedFactor="1.07" vaporized=""/>
    <tripinfo id="6" depart="7.00" departLane="E0_0" departPos="5.10" departSpeed="14.30" departDelay="1.00" arrival="190.00" arrivalLane="E3_0" arrivalPos="90.46" arrivalSpeed="25.08" duration="183.00" routeLength="1317.38" waitingTime="77.00" waitingCount="2" stopTime="0.00" timeLoss="103.20" rerouteNo="0" devices="tripinfo_6" vType="DEFAULT_VEHTYPE" speedFactor="1.08" vaporized=""/>
    <tripinfo id="36" depart="71.00" departLane="E0_0" departPos="5.10" departSpeed="5.50" departDelay="33.00" arrival="196.00" arrivalLane="E3_0" arrivalPos="90.46" arrivalSpeed="22.55" duration="125.00" routeLength="1314.99" waitingTime="0.00" waitingCount="0" stopTime="0.00" timeLoss="18.34" rerouteNo="0" devices="tripinfo_36" vType="DEFAULT_VEHTYPE" speedFactor="0.77" vaporized=""/>
    <tripinfo id="38" depart="75.00" departLane="E0_0" departPos="5.10" departSpeed="4.68" departDelay="37.00" arrival="197.00" arrivalLane="E3_0" arrivalPos="90.46" arrivalSpeed="24.91" duration="122.00" routeLength="1314.99" waitingTime="0.00" waitingCount="0" stopTime="0.00" timeLoss="41.88" rerouteNo="0" devices="tripinfo_38" vType="DEFAULT_VEHTYPE" speedFactor="1.02" vaporized=""/>
    <tripinfo id="39" depart="77.00" departLane="E0_0" departPos="5.10" departSpeed="4.19" departDelay="38.00" arrival="199.00" arrivalLane="E3_0" arrivalPos="90.46" arrivalSpeed="26.29" duration="122.00" routeLength="1314.99" waitingTime="0.00" waitingCount="0" stopTime="0.00" timeLoss="27.89" rerouteNo="0" devices="tripinfo_39" vType="DEFAULT_VEHTYPE" speedFactor="0.88" vaporized=""/>
    <tripinfo id="40" depart="79.00" departLane="E0_0" departPos="5.10" departSpeed="1.91" departDelay="39.00" arrival="200.00" arrivalLane="E3_0" arrivalPos="90.46" arrivalSpeed="26.35" duration="121.00" routeLength="1314.99" waitingTime="0.00" waitingCount="0" stopTime="0.00" timeLoss="44.00" rerouteNo="0" devices="tripinfo_40" vType="DEFAULT_VEHTYPE" speedFactor="1.06" vaporized=""/>
    <tripinfo id="42" depart="86.00" departLane="E0_0" departPos="5.10" departSpeed="6.43" departDelay="45.00" arrival="201.00" arrivalLane="E3_0" arrivalPos="90.46" arrivalSpeed="26.17" duration="115.00" routeLength="1314.99" waitingTime="0.00" waitingCount="0" stopTime="0.00" timeLoss="37.05" rerouteNo="0" devices="tripinfo_42" vType="DEFAULT_VEHTYPE" speedFactor="1.05" vaporized=""/>
    <tripinfo id="43" depart="88.00" departLane="E0_0" departPos="5.10" departSpeed="7.21" departDelay="46.00" arrival="203.00" arrivalLane="E3_0" arrivalPos="90.46" arrivalSpeed="26.71" duration="115.00" routeLength="1314.99" waitingTime="0.00" waitingCount="0" stopTime="0.00" timeLoss="33.19" rerouteNo="0" devices="tripinfo_43" vType="DEFAULT_VEHTYPE" speedFactor="1.00" vaporized=""/>
    <tripinfo id="44" depart="90.00" departLane="E0_0" departPos="5.10" departSpeed="8.25" departDelay="46.00" arrival="204.00" arrivalLane="E3_0" arrivalPos="90.46" arrivalSpeed="26.82" duration="114.00" routeLength="1314.99" waitingTime="0.00" waitingCount="0" stopTime="0.00" timeLoss="39.59" rerouteNo="0" devices="tripinfo_44" vType="DEFAULT_VEHTYPE" speedFactor="1.10" vaporized=""/>
    <tripinfo id="45" depart="91.00" departLane="E0_0" departPos="5.10" departSpeed="4.01" departDelay="47.00" arrival="206.00" arrivalLane="E3_0" arrivalPos="90.46" arrivalSpeed="26.43" duration="115.00" routeLength="1314.99" waitingTime="0.00" waitingCount="0" stopTime="0.00" timeLoss="23.89" rerouteNo="0" devices="tripinfo_45" vType="DEFAULT_VEHTYPE" speedFactor="0.90" vaporized=""/>
    <tripinfo id="46" depart="93.00" departLane="E0_0" departPos="5.10" departSpeed="0.52" departDelay="48.00" arrival="208.00" arrivalLane="E3_0" arrivalPos="90.46" arrivalSpeed="28.63" duration="115.00" routeLength="1314.99" waitingTime="0.00" waitingCount="0" stopTime="0.00" timeLoss="29.12" rerouteNo="0" devices="tripinfo_46" vType="DEFAULT_VEHTYPE" speedFactor="0.96" vaporized=""/>
    <tripinfo id="50" depart="104.00" departLane="E0_0" departPos="5.10" departSpeed="6.05" departDelay="51.00" arrival="209.00" arrivalLane="E3_0" arrivalPos="90.46" arrivalSpeed="29.08" duration="105.00" routeLength="1314.99" waitingTime="0.00" waitingCount="0" stopTime="0.00" timeLoss="22.72" rerouteNo="0" devices="tripinfo_50" vType="DEFAULT_VEHTYPE" speedFactor="1.00" vaporized=""/>
    <tripinfo id="51" depart="106.00" departLane="E0_0" departPos="5.10" departSpeed="6.53" departDelay="52.00" arrival="211.00" arrivalLane="E3_0" arrivalPos="90.46" arrivalSpeed="29.36" duration="105.00" routeLength="1314.99" waitingTime="0.00" waitingCount="0" stopTime="0.00" timeLoss="21.26" rerouteNo="0" devices="tripinfo_51" vType="DEFAULT_VEHTYPE" speedFactor="0.99" vaporized=""/>
    <tripinfo id="53" depart="110.00" departLane="E0_0" departPos="5.10" departSpeed="6.06" departDelay="55.00" arrival="220.00" arrivalLane="E3_0" arrivalPos="90.46" arrivalSpeed="27.14" duration="110.00" routeLength="1314.99" waitingTime="0.00" waitingCount="0" stopTime="0.00" timeLoss="19.90" rerouteNo="0" devices="tripinfo_53" vType="DEFAULT_VEHTYPE" speedFactor="0.91" vaporized=""/>
    <tripinfo id="54" depart="112.00" departLane="E0_0" departPos="5.10" departSpeed="4.80" departDelay="57.00" arrival="222.00" arrivalLane="E3_0" arrivalPos="90.46" arrivalSpeed="27.52" duration="110.00" routeLength="1314.99" waitingTime="0.00" waitingCount="0" stopTime="0.00" timeLoss="23.19" rerouteNo="0" devices="tripinfo_54" vType="DEFAULT_VEHTYPE" speedFactor="0.95" vaporized=""/>
    <tripinfo id="56" depart="116.00" departLane="E0_0" departPos="5.10" departSpeed="1.13" departDelay="59.00" arrival="227.00" arrivalLane="E3_0" arrivalPos="90.46" arrivalSpeed="26.78" duration="111.00" routeLength="1314.99" waitingTime="0.00" waitingCount="0" stopTime="0.00" timeLoss="22.41" rerouteNo="0" devices="tripinfo_56" vType="DEFAULT_VEHTYPE" speedFactor="0.93" vaporized=""/>
    <tripinfo id="8" depart="9.00" departLane="E0_0" departPos="5.10" departSpeed="7.90" departDelay="2.00" arrival="236.00" arrivalLane="E3_0" arrivalPos="90.46" arrivalSpeed="22.33" duration="227.00" routeLength="1317.38" waitingTime="107.00" waitingCount="3" stopTime="0.00" timeLoss="143.05" rerouteNo="0" devices="tripinfo_8" vType="DEFAULT_VEHTYPE" speedFactor="1.02" vaporized=""/>
    <tripinfo id="62" depart="133.00" departLane="E0_0" departPos="5.10" departSpeed="2.46" departDelay="71.00" arrival="242.00" arrivalLane="E3_0" arrivalPos="90.46" arrivalSpeed="25.82" duration="109.00" routeLength="1314.99" waitingTime="0.00" waitingCount="0" stopTime="0.00" timeLoss="18.02" rerouteNo="0" devices="tripinfo_62" vType="DEFAULT_VEHTYPE" speedFactor="0.90" vaporized=""/>
    <tripinfo id="64" depart="138.00" departLane="E0_0" departPos="5.10" departSpeed="5.70" departDelay="74.00" arrival="244.00" arrivalLane="E3_0" arrivalPos="90.46" arrivalSpeed="30.31" duration="106.00" routeLength="1314.99" waitingTime="0.00" waitingCount="0" stopTime="0.00" timeLoss="29.92" rerouteNo="0" devices="tripinfo_64" vType="DEFAULT_VEHTYPE" speedFactor="1.08" vaporized=""/>
    <tripinfo id="65" depart="140.00" departLane="E0_0" departPos="5.10" departSpeed="4.56" departDelay="76.00" arrival="245.00" arrivalLane="E3_0" arrivalPos="90.46" arrivalSpeed="28.90" duration="105.00" routeLength="1314.99" waitingTime="0.00" waitingCount="0" stopTime="0.00" timeLoss="20.84" rerouteNo="0" devices="tripinfo_65" vType="DEFAULT_VEHTYPE" speedFactor="0.98" vaporized=""/>
    <tripinfo id="66" depart="142.00" departLane="E0_0" departPos="5.10" departSpeed="1.98" departDelay="78.00" arrival="247.00" arrivalLane="E3_0" arrivalPos="90.46" arrivalSpeed="28.13" duration="105.00" routeLength="1314.99" waitingTime="0.00" waitingCount="0" stopTime="0.00" timeLoss="20.64" rerouteNo="0" devices="tripinfo_66" vType="DEFAULT_VEHTYPE" speedFactor="0.98" vaporized=""/>
    <tripinfo id="68" depart="148.00" departLane="E0_0" departPos="5.10" departSpeed="5.58" departDelay="80.00" arrival="254.00" arrivalLane="E3_0" arrivalPos="90.46" arrivalSpeed="28.20" duration="106.00" routeLength="1314.99" waitingTime="0.00" waitingCount="0" stopTime="0.00" timeLoss="18.54" rerouteNo="0" devices="tripinfo_68" vType="DEFAULT_VEHTYPE" speedFactor="0.94" vaporized=""/>
    <tripinfo id="75" depart="163.00" departLane="E0_0" departPos="5.10" departSpeed="1.69" departDelay="86.00" arrival="255.00" arrivalLane="E3_0" arrivalPos="90.46" arrivalSpeed="31.16" duration="92.00" routeLength="1314.99" waitingTime="0.00" waitingCount="0" stopTime="0.00" timeLoss="17.71" rerouteNo="0" devices="tripinfo_75" vType="DEFAULT_VEHTYPE" speedFactor="1.10" vaporized=""/>
    <tripinfo id="76" depart="166.00" departLane="E0_0" departPos="5.10" departSpeed="0.15" departDelay="88.00" arrival="257.00" arrivalLane="E3_0" arrivalPos="90.46" arrivalSpeed="33.31" duration="91.00" routeLength="1314.99" waitingTime="0.00" waitingCount="0" stopTime="0.00" timeLoss="18.98" rerouteNo="0" devices="tripinfo_76" vType="DEFAULT_VEHTYPE" speedFactor="1.14" vaporized=""/>
    <tripinfo id="80" depart="177.00" departLane="E0_0" departPos="5.10" departSpeed="0.53" departDelay="91.00" arrival="269.00" arrivalLane="E3_0" arrivalPos="90.46" arrivalSpeed="31.41" duration="92.00" routeLength="1314.99" waitingTime="0.00" waitingCount="0" stopTime="0.00" timeLoss="14.60" rerouteNo="0" devices="tripinfo_80" vType="DEFAULT_VEHTYPE" speedFactor="1.08" vaporized=""/>
    <tripinfo id="83" depart="186.00" departLane="E0_0" departPos="5.10" departSpeed="3.99" departDelay="95.00" arrival="278.00" arrivalLane="E3_0" arrivalPos="90.46" arrivalSpeed="31.08" duration="92.00" routeLength="1314.99" waitingTime="0.00" waitingCount="0" stopTime="0.00" timeLoss="14.39" rerouteNo="0" devices="tripinfo_83" vType="DEFAULT_VEHTYPE" speedFactor="1.06" vaporized=""/>
    <tripinfo id="86" depart="193.00" departLane="E0_0" departPos="5.10" departSpeed="7.36" departDelay="99.00" arrival="287.00" arrivalLane="E3_0" arrivalPos="90.46" arrivalSpeed="30.05" duration="94.00" routeLength="1314.99" waitingTime="0.00" waitingCount="0" stopTime="0.00" timeLoss="13.74" rerouteNo="0" devices="tripinfo_86" vType="DEFAULT_VEHTYPE" speedFactor="1.02" vaporized=""/>
    <tripinfo id="89" depart="199.00" departLane="E0_0" departPos="5.10" departSpeed="9.48" departDelay="102.00" arrival="288.00" arrivalLane="E3_0" arrivalPos="90.46" arrivalSpeed="32.95" duration="89.00" routeLength="1314.99" waitingTime="0.00" waitingCount="0" stopTime="0.00" timeLoss="19.76" rerouteNo="0" devices="tripinfo_89" vType="DEFAULT_VEHTYPE" speedFactor="1.18" vaporized=""/>
    <tripinfo id="11" depart="15.00" departLane="E0_0" departPos="5.10" departSpeed="5.09" departDelay="6.00" arrival="299.00" arrivalLane="E3_0" arrivalPos="90.46" arrivalSpeed="22.79" duration="284.00" routeLength="1317.38" waitingTime="161.00" waitingCount="4" stopTime="0.00" timeLoss="207.81" rerouteNo="0" devices="tripinfo_11" vType="DEFAULT_VEHTYPE" speedFactor="1.12" vaporized=""/>
    <tripinfo id="92" depart="204.00" departLane="E0_0" departPos="5.10" departSpeed="2.96" departDelay="106.00" arrival="304.00" arrivalLane="E3_0" arrivalPos="90.46" arrivalSpeed="28.87" duration="100.00" routeLength="1314.99" waitingTime="0.00" waitingCount="0" stopTime="0.00" timeLoss="15.40" rerouteNo="0" devices="tripinfo_92" vType="DEFAULT_VEHTYPE" speedFactor="0.98" vaporized=""/>
    <tripinfo id="93" depart="207.00" departLane="E0_0" departPos="5.10" departSpeed="5.66" departDelay="108.00" arrival="310.00" arrivalLane="E3_0" arrivalPos="90.46" arrivalSpeed="27.48" duration="103.00" routeLength="1314.99" waitingTime="0.00" waitingCount="0" stopTime="0.00" timeLoss="15.51" rerouteNo="0" devices="tripinfo_93" vType="DEFAULT_VEHTYPE" speedFactor="0.94" vaporized=""/>
    <tripinfo id="94" depart="209.00" departLane="E0_0" departPos="5.10" departSpeed="6.17" departDelay="110.00" arrival="311.00" arrivalLane="E3_0" arrivalPos="90.46" arrivalSpeed="29.34" duration="102.00" routeLength="1314.99" waitingTime="0.00" waitingCount="0" stopTime="0.00" timeLoss="22.69" rerouteNo="0" devices="tripinfo_94" vType="DEFAULT_VEHTYPE" speedFactor="1.03" vaporized=""/>
    <tripinfo id="96" depart="213.00" departLane="E0_0" departPos="5.10" departSpeed="6.54" departDelay="113.00" arrival="323.00" arrivalLane="E3_0" arrivalPos="90.46" arrivalSpeed="26.16" duration="110.00" routeLength="1314.99" waitingTime="0.00" waitingCount="0" stopTime="0.00" timeLoss="16.96" rerouteNo="0" devices="tripinfo_96" vType="DEFAULT_VEHTYPE" speedFactor="0.89" vaporized=""/>
    <tripinfo id="100" depart="220.00" departLane="E0_0" departPos="5.10" departSpeed="3.69" departDelay="118.00" arrival="324.00" arrivalLane="E3_0" arrivalPos="90.46" arrivalSpeed="27.75" duration="104.00" routeLength="1314.99" waitingTime="0.00" waitingCount="0" stopTime="0.00" timeLoss="29.45" rerouteNo="0" devices="tripinfo_100" vType="DEFAULT_VEHTYPE" speedFactor="1.10" vaporized=""/>
    <tripinfo id="12" depart="17.00" departLane="E0_0" departPos="5.10" departSpeed="4.46" departDelay="6.00" arrival="334.00" arrivalLane="E3_0" arrivalPos="90.46" arrivalSpeed="23.67" duration="317.00" routeLength="1317.38" waitingTime="178.00" waitingCount="5" stopTime="0.00" timeLoss="221.78" rerouteNo="0" devices="tripinfo_12" vType="DEFAULT_VEHTYPE" speedFactor="0.90" vaporized=""/>
    <tripinfo id="102" depart="225.00" departLane="E0_0" departPos="5.10" departSpeed="5.45" departDelay="120.00" arrival="342.00" arrivalLane="E3_0" arrivalPos="90.46" arrivalSpeed="24.36" duration="117.00" routeLength="1314.99" waitingTime="0.00" waitingCount="0" stopTime="0.00" timeLoss="18.68" rerouteNo="0" devices="tripinfo_102" vType="DEFAULT_VEHTYPE" speedFactor="0.84" vaporized=""/>
    <tripinfo id="104" depart="229.00" departLane="E0_0" departPos="5.10" departSpeed="5.57" departDelay="123.00" arrival="343.00" arrivalLane="E3_0" arrivalPos="90.46" arrivalSpeed="27.74" duration="114.00" routeLength="1314.99" waitingTime="0.00" waitingCount="0" stopTime="0.00" timeLoss="34.80" rerouteNo="0" devices="tripinfo_104" vType="DEFAULT_VEHTYPE" speedFactor="1.04" vaporized=""/>
    <tripinfo id="106" depart="233.00" departLane="E0_0" departPos="5.10" departSpeed="3.48" departDelay="126.00" arrival="344.00" arrivalLane="E3_0" arrivalPos="90.46" arrivalSpeed="27.12" duration="111.00" routeLength="1314.99" waitingTime="0.00" waitingCount="0" stopTime="0.00" timeLoss="25.34" rerouteNo="0" devices="tripinfo_106" vType="DEFAULT_VEHTYPE" speedFactor="0.95" vaporized=""/>
    <tripinfo id="110" depart="243.00" departLane="E0_0" departPos="5.10" departSpeed="0.95" departDelay="131.00" arrival="346.00" arrivalLane="E3_0" arrivalPos="90.46" arrivalSpeed="28.71" duration="103.00" routeLength="1314.99" waitingTime="0.00" waitingCount="0" stopTime="0.00" timeLoss="22.10" rerouteNo="0" devices="tripinfo_110" vType="DEFAULT_VEHTYPE" speedFactor="1.01" vaporized=""/>
    <tripinfo id="111" depart="246.00" departLane="E0_0" departPos="5.10" departSpeed="3.28" departDelay="133.00" arrival="347.00" arrivalLane="E3_0" arrivalPos="90.46" arrivalSpeed="28.73" duration="101.00" routeLength="1314.99" waitingTime="0.00" waitingCount="0" stopTime="0.00" timeLoss="28.45" rerouteNo="0" devices="tripinfo_111" vType="DEFAULT_VEHTYPE" speedFactor="1.13" vaporized=""/>
    <tripinfo id="14" depart="22.00" departLane="E0_0" departPos="5.10" departSpeed="3.24" departDelay="10.00" arrival="356.00" arrivalLane="E3_0" arrivalPos="90.46" arrivalSpeed="25.74" duration="334.00" routeLength="1317.38" waitingTime="190.00" waitingCount="6" stopTime="0.00" timeLoss="251.39" rerouteNo="0" devices="tripinfo_14" vType="DEFAULT_VEHTYPE" speedFactor="1.04" vaporized=""/>
    <tripinfo id="113" depart="251.00" departLane="E0_0" departPos="5.10" departSpeed="4.88" departDelay="136.00" arrival="361.00" arrivalLane="E3_0" arrivalPos="90.46" arrivalSpeed="26.05" duration="110.00" routeLength="1314.99" waitingTime="0.00" waitingCount="0" stopTime="0.00" timeLoss="16.69" rerouteNo="0" devices="tripinfo_113" vType="DEFAULT_VEHTYPE" speedFactor="0.89" vaporized=""/>
    <tripinfo id="114" depart="253.00" departLane="E0_0" departPos="5.10" departSpeed="4.33" departDelay="138.00" arrival="362.00" arrivalLane="E3_0" arrivalPos="90.46" arrivalSpeed="27.85" duration="109.00" routeLength="1314.99" waitingTime="0.00" waitingCount="0" stopTime="0.00" timeLoss="23.73" rerouteNo="0" devices="tripinfo_114" vType="DEFAULT_VEHTYPE" speedFactor="0.97" vaporized=""/>
    <tripinfo id="115" depart="255.00" departLane="E0_0" departPos="5.10" departSpeed="3.61" departDelay="138.00" arrival="363.00" arrivalLane="E3_0" arrivalPos="90.46" arrivalSpeed="28.00" duration="108.00" routeLength="1314.99" waitingTime="0.00" waitingCount="0" stopTime="0.00" timeLoss="29.29" rerouteNo="0" devices="tripinfo_115" vType="DEFAULT_VEHTYPE" speedFactor="1.04" vaporized=""/>
    <tripinfo id="120" depart="267.00" departLane="E0_0" departPos="5.10" departSpeed="1.97" departDelay="137.00" arrival="366.00" arrivalLane="E3_0" arrivalPos="90.46" arrivalSpeed="29.34" duration="99.00" routeLength="1314.99" waitingTime="0.00" waitingCount="0" stopTime="0.00" timeLoss="17.22" rerouteNo="0" devices="tripinfo_120" vType="DEFAULT_VEHTYPE" speedFactor="1.01" vaporized=""/>
    <tripinfo id="122" depart="273.00" departLane="E0_0" departPos="5.10" departSpeed="4.25" departDelay="140.00" arrival="371.00" arrivalLane="E3_0" arrivalPos="90.46" arrivalSpeed="28.90" duration="98.00" routeLength="1314.99" waitingTime="0.00" waitingCount="0" stopTime="0.00" timeLoss="15.42" rerouteNo="0" devices="tripinfo_122" vType="DEFAULT_VEHTYPE" speedFactor="1.00" vaporized=""/>
    <tripinfo id="20" depart="37.00" departLane="E0_0" departPos="5.10" departSpeed="7.82" departDelay="20.00" arrival="381.00" arrivalLane="E3_0" arrivalPos="90.46" arrivalSpeed="24.32" duration="344.00" routeLength="1317.38" waitingTime="200.00" waitingCount="8" stopTime="0.00" timeLoss="258.79" rerouteNo="0" devices="tripinfo_20" vType="DEFAULT_VEHTYPE" speedFactor="1.01" vaporized=""/>
    <tripinfo id="21" depart="39.00" departLane="E0_0" departPos="5.10" departSpeed="8.84" departDelay="22.00" arrival="382.00" arrivalLane="E3_0" arrivalPos="90.46" arrivalSpeed="23.13" duration="343.00" routeLength="1317.38" waitingTime="187.00" waitingCount="7" stopTime="0.00" timeLoss="245.25" rerouteNo="0" devices="tripinfo_21" vType="DEFAULT_VEHTYPE" speedFactor="0.87" vaporized=""/>
    <tripinfo id="22" depart="40.00" departLane="E0_0" departPos="5.10" departSpeed="3.13" departDelay="23.00" arrival="385.00" arrivalLane="E3_0" arrivalPos="90.46" arrivalSpeed="24.70" duration="345.00" routeLength="1317.38" waitingTime="183.00" waitingCount="7" stopTime="0.00" timeLoss="261.72" rerouteNo="0" devices="tripinfo_22" vType="DEFAULT_VEHTYPE" speedFactor="1.03" vaporized=""/>
    <tripinfo id="23" depart="43.00" departLane="E0_0" departPos="5.10" departSpeed="6.19" departDelay="25.00" arrival="386.00" arrivalLane="E3_0" arrivalPos="90.46" arrivalSpeed="24.89" duration="343.00" routeLength="1317.38" waitingTime="178.00" waitingCount="7" stopTime="0.00" timeLoss="267.39" rerouteNo="0" devices="tripinfo_23" vType="DEFAULT_VEHTYPE" speedFactor="1.13" vaporized=""/>
    <tripinfo id="24" depart="45.00" departLane="E0_0" departPos="5.10" departSpeed="7.27" departDelay="27.00" arrival="390.00" arrivalLane="E3_0" arrivalPos="90.46" arrivalSpeed="23.06" duration="345.00" routeLength="1317.38" waitingTime="172.00" waitingCount="7" stopTime="0.00" timeLoss="249.27" rerouteNo="0" devices="tripinfo_24" vType="DEFAULT_VEHTYPE" speedFactor="0.89" vaporized=""/>
    <tripinfo id="124" depart="278.00" departLane="E0_0" departPos="5.10" departSpeed="6.06" departDelay="142.00" arrival="396.00" arrivalLane="E3_0" arrivalPos="90.46" arrivalSpeed="23.84" duration="118.00" routeLength="1314.99" waitingTime="0.00" waitingCount="0" stopTime="0.00" timeLoss="15.51" rerouteNo="0" devices="tripinfo_124" vType="DEFAULT_VEHTYPE" speedFactor="0.80" vaporized=""/>
    <tripinfo id="126" depart="282.00" departLane="E0_0" departPos="5.10" departSpeed="7.61" departDelay="145.00" arrival="397.00" arrivalLane="E3_0" arrivalPos="90.46" arrivalSpeed="25.68" duration="115.00" routeLength="1314.99" waitingTime="0.00" waitingCount="0" stopTime="0.00" timeLoss="30.62" rerouteNo="0" devices="tripinfo_126" vType="DEFAULT_VEHTYPE" speedFactor="0.97" vaporized=""/>
    <tripinfo id="127" depart="284.00" departLane="E0_0" departPos="5.10" departSpeed="7.91" departDelay="147.00" arrival="399.00" arrivalLane="E3_0" arrivalPos="90.46" arrivalSpeed="26.72" duration="115.00" routeLength="1314.99" waitingTime="0.00" waitingCount="0" stopTime="0.00" timeLoss="24.67" rerouteNo="0" devices="tripinfo_127" vType="DEFAULT_VEHTYPE" speedFactor="0.91" vaporized=""/>