<?xml version="1.0" encoding="UTF-8"?>

<!-- generated on 2023-04-28 22:15:00 by Eclipse SUMO sumo Version 1.16.0
<configuration xmlns:xsi="http://www.w3.org/2001/XMLSchema-instance" xsi:noNamespaceSchemaLocation="http://sumo.dlr.de/xsd/sumoConfiguration.xsd">

    <input>
        <net-file value="C:\Users\Local_Man\Desktop\Stolen%20Music\school%20stuff%20for%20college\Semester%2015%20(UH%20Graduate%20School)\COSC%206364%20Nikolaos\SUMO_Project\COSC6364_Project\configurations\maps\Braess_Homebrew_fixed1.net.xml"/>
        <route-files value="./configurations/Rounds/Braess_Homebrew_fixed1.net.xml-test-2/Microscopic_DUE/002/Trips_File_002.rou.xml"/>
    </input>

    <output>
        <summary-output value="./configurations/Rounds/Braess_Homebrew_fixed1.net.xml-test-2/Microscopic_DUE/002/summary.xml"/>
        <tripinfo-output value="./configurations/Rounds/Braess_Homebrew_fixed1.net.xml-test-2/Microscopic_DUE/002/trips.trips.xml"/>
        <statistic-output value="./configurations/Rounds/Braess_Homebrew_fixed1.net.xml-test-2/Microscopic_DUE/002/stats_output.xml"/>
    </output>

    <time>
        <begin value="0"/>
    </time>

    <report>
        <log value="./configurations/Rounds/Braess_Homebrew_fixed1.net.xml-test-2/Microscopic_DUE/002/log.sumo.log"/>
        <no-step-log value="true"/>
    </report>

    <gui_only>
        <quit-on-end value="true"/>
    </gui_only>

</configuration>
-->

<tripinfos xmlns:xsi="http://www.w3.org/2001/XMLSchema-instance" xsi:noNamespaceSchemaLocation="http://sumo.dlr.de/xsd/tripinfo_file.xsd">
    <tripinfo id="2" depart="3.00" departLane="E0_0" departPos="5.10" departSpeed="0.00" departDelay="0.00" arrival="101.00" arrivalLane="E3_0" arrivalPos="90.46" arrivalSpeed="24.36" duration="98.00" routeLength="1317.38" waitingTime="0.00" waitingCount="0" stopTime="0.00" timeLoss="17.22" rerouteNo="0" devices="tripinfo_2" vType="DEFAULT_VEHTYPE" speedFactor="1.06" vaporized=""/>
    <tripinfo id="4" depart="9.00" departLane="E0_0" departPos="5.10" departSpeed="0.00" departDelay="1.00" arrival="106.00" arrivalLane="E3_0" arrivalPos="90.46" arrivalSpeed="29.04" duration="97.00" routeLength="1314.99" waitingTime="0.00" waitingCount="0" stopTime="0.00" timeLoss="15.82" rerouteNo="0" devices="tripinfo_4" vType="DEFAULT_VEHTYPE" speedFactor="1.01" vaporized=""/>
    <tripinfo id="5" depart="12.00" departLane="E0_0" departPos="5.10" departSpeed="0.00" departDelay="3.00" arrival="108.00" arrivalLane="E3_0" arrivalPos="90.46" arrivalSpeed="31.23" duration="96.00" routeLength="1314.99" waitingTime="0.00" waitingCount="0" stopTime="0.00" timeLoss="19.49" rerouteNo="0" devices="tripinfo_5" vType="DEFAULT_VEHTYPE" speedFactor="1.08" vaporized=""/>
    <tripinfo id="6" depart="15.00" departLane="E0_0" departPos="5.10" departSpeed="0.00" departDelay="5.00" arrival="110.00" arrivalLane="E3_0" arrivalPos="90.46" arrivalSpeed="30.11" duration="95.00" routeLength="1314.99" waitingTime="0.00" waitingCount="0" stopTime="0.00" timeLoss="14.71" rerouteNo="0" devices="tripinfo_6" vType="DEFAULT_VEHTYPE" speedFactor="1.03" vaporized=""/>
    <tripinfo id="7" depart="18.00" departLane="E0_0" departPos="5.10" departSpeed="0.00" departDelay="6.00" arrival="131.00" arrivalLane="E3_0" arrivalPos="90.46" arrivalSpeed="23.76" duration="113.00" routeLength="1314.99" waitingTime="0.00" waitingCount="0" stopTime="0.00" timeLoss="14.41" rerouteNo="0" devices="tripinfo_7" vType="DEFAULT_VEHTYPE" speedFactor="0.83" vaporized=""/>
    <tripinfo id="9" depart="24.00" departLane="E0_0" departPos="5.10" departSpeed="0.00" departDelay="9.00" arrival="133.00" arrivalLane="E3_0" arrivalPos="90.46" arrivalSpeed="26.01" duration="109.00" routeLength="1314.99" waitingTime="0.00" waitingCount="0" stopTime="0.00" timeLoss="15.85" rerouteNo="0" devices="tripinfo_9" vType="DEFAULT_VEHTYPE" speedFactor="0.89" vaporized=""/>
    <tripinfo id="10" depart="27.00" departLane="E0_0" departPos="5.10" departSpeed="0.00" departDelay="12.00" arrival="134.00" arrivalLane="E3_0" arrivalPos="90.46" arrivalSpeed="26.30" duration="107.00" routeLength="1314.99" waitingTime="0.00" waitingCount="0" stopTime="0.00" timeLoss="19.44" rerouteNo="0" devices="tripinfo_10" vType="DEFAULT_VEHTYPE" speedFactor="0.94" vaporized=""/>
    <tripinfo id="12" depart="33.00" departLane="E0_0" departPos="5.10" departSpeed="0.00" departDelay="13.00" arrival="136.00" arrivalLane="E3_0" arrivalPos="90.46" arrivalSpeed="28.06" duration="103.00" routeLength="1314.99" waitingTime="0.00" waitingCount="0" stopTime="0.00" timeLoss="27.29" rerouteNo="0" devices="tripinfo_12" vType="DEFAULT_VEHTYPE" speedFactor="1.09" vaporized=""/>
    <tripinfo id="14" depart="39.00" departLane="E0_0" departPos="5.10" departSpeed="0.00" departDelay="17.00" arrival="137.00" arrivalLane="E3_0" arrivalPos="90.46" arrivalSpeed="29.16" duration="98.00" routeLength="1314.99" waitingTime="0.00" waitingCount="0" stopTime="0.00" timeLoss="19.36" rerouteNo="0" devices="tripinfo_14" vType="DEFAULT_VEHTYPE" speedFactor="1.05" vaporized=""/>
    <tripinfo id="15" depart="42.00" departLane="E0_0" departPos="5.10" departSpeed="0.00" departDelay="19.00" arrival="138.00" arrivalLane="E3_0" arrivalPos="90.46" arrivalSpeed="29.12" duration="96.00" routeLength="1314.99" waitingTime="0.00" waitingCount="0" stopTime="0.00" timeLoss="22.77" rerouteNo="0" devices="tripinfo_15" vType="DEFAULT_VEHTYPE" speedFactor="1.12" vaporized=""/>
    <tripinfo id="16" depart="45.00" departLane="E0_0" departPos="5.10" departSpeed="0.00" departDelay="22.00" arrival="142.00" arrivalLane="E3_0" arrivalPos="90.46" arrivalSpeed="29.62" duration="97.00" routeLength="1314.99" waitingTime="0.00" waitingCount="0" stopTime="0.00" timeLoss="13.67" rerouteNo="0" devices="tripinfo_16" vType="DEFAULT_VEHTYPE" speedFactor="0.99" vaporized=""/>
    <tripinfo id="17" depart="48.00" departLane="E0_0" departPos="5.10" departSpeed="0.00" departDelay="24.00" arrival="150.00" arrivalLane="E3_0" arrivalPos="90.46" arrivalSpeed="27.06" duration="102.00" routeLength="1314.99" waitingTime="0.00" waitingCount="0" stopTime="0.00" timeLoss="13.45" rerouteNo="0" devices="tripinfo_17" vType="DEFAULT_VEHTYPE" speedFactor="0.93" vaporized=""/>
    <tripinfo id="18" depart="51.00" departLane="E0_0" departPos="5.10" departSpeed="0.00" departDelay="27.00" arrival="158.00" arrivalLane="E3_0" arrivalPos="90.46" arrivalSpeed="25.55" duration="107.00" routeLength="1314.99" waitingTime="0.00" waitingCount="0" stopTime="0.00" timeLoss="13.13" rerouteNo="0" devices="tripinfo_18" vType="DEFAULT_VEHTYPE" speedFactor="0.88" vaporized=""/>
    <tripinfo id="20" depart="57.00" departLane="E0_0" departPos="5.10" departSpeed="0.00" departDelay="28.00" arrival="159.00" arrivalLane="E3_0" arrivalPos="90.46" arrivalSpeed="28.04" duration="102.00" routeLength="1314.99" waitingTime="0.00" waitingCount="0" stopTime="0.00" timeLoss="14.12" rerouteNo="0" devices="tripinfo_20" vType="DEFAULT_VEHTYPE" speedFactor="0.94" vaporized=""/>
    <tripinfo id="22" depart="63.00" departLane="E0_0" departPos="5.10" departSpeed="0.00" departDelay="31.00" arrival="160.00" arrivalLane="E3_0" arrivalPos="90.46" arrivalSpeed="28.27" duration="97.00" routeLength="1314.99" waitingTime="0.00" waitingCount="0" stopTime="0.00" timeLoss="16.59" rerouteNo="0" devices="tripinfo_22" vType="DEFAULT_VEHTYPE" speedFactor="1.02" vaporized=""/>
    <tripinfo id="23" depart="66.00" departLane="E0_0" departPos="5.10" departSpeed="0.00" departDelay="34.00" arrival="162.00" arrivalLane="E3_0" arrivalPos="90.46" arrivalSpeed="29.77" duration="96.00" routeLength="1314.99" waitingTime="0.00" waitingCount="0" stopTime="0.00" timeLoss="14.67" rerouteNo="0" devices="tripinfo_23" vType="DEFAULT_VEHTYPE" speedFactor="1.01" vaporized=""/>
    <tripinfo id="24" depart="69.00" departLane="E0_0" departPos="5.10" departSpeed="0.00" departDelay="36.00" arrival="169.00" arrivalLane="E3_0" arrivalPos="90.46" arrivalSpeed="28.96" duration="100.00" routeLength="1314.99" waitingTime="0.00" waitingCount="0" stopTime="0.00" timeLoss="15.97" rerouteNo="0" devices="tripinfo_24" vType="DEFAULT_VEHTYPE" speedFactor="0.97" vaporized=""/>
    <tripinfo id="25" depart="72.00" departLane="E0_0" departPos="5.10" departSpeed="0.00" departDelay="39.00" arrival="178.00" arrivalLane="E3_0" arrivalPos="90.46" arrivalSpeed="26.35" duration="106.00" routeLength="1314.99" waitingTime="0.00" waitingCount="0" stopTime="0.00" timeLoss="13.33" rerouteNo="0" devices="tripinfo_25" vType="DEFAULT_VEHTYPE" speedFactor="0.89" vaporized=""/>
    <tripinfo id="29" depart="84.00" departLane="E0_0" departPos="5.10" departSpeed="0.00" departDelay="47.00" arrival="184.00" arrivalLane="E3_0" arrivalPos="90.46" arrivalSpeed="27.42" duration="100.00" routeLength="1314.99" waitingTime="0.00" waitingCount="0" stopTime="0.00" timeLoss="13.90" rerouteNo="0" devices="tripinfo_29" vType="DEFAULT_VEHTYPE" speedFactor="0.95" vaporized=""/>
    <tripinfo id="30" depart="87.00" departLane="E0_0" departPos="5.10" departSpeed="0.00" departDelay="50.00" arrival="186.00" arrivalLane="E3_0" arrivalPos="90.46" arrivalSpeed="32.03" duration="99.00" routeLength="1314.99" waitingTime="0.00" waitingCount="0" stopTime="0.00" timeLoss="26.24" rerouteNo="0" devices="tripinfo_30" vType="DEFAULT_VEHTYPE" speedFactor="1.13" vaporized=""/>
    <tripinfo id="31" depart="90.00" departLane="E0_0" departPos="5.10" departSpeed="0.00" departDelay="53.00" arrival="191.00" arrivalLane="E3_0" arrivalPos="90.46" arrivalSpeed="26.94" duration="101.00" routeLength="1314.99" waitingTime="0.00" waitingCount="0" stopTime="0.00" timeLoss="13.24" rerouteNo="0" devices="tripinfo_31" vType="DEFAULT_VEHTYPE" speedFactor="0.93" vaporized=""/>
    <tripinfo id="32" depart="93.00" departLane="E0_0" departPos="5.10" departSpeed="0.00" departDelay="55.00" arrival="193.00" arrivalLane="E3_0" arrivalPos="90.46" arrivalSpeed="32.44" duration="100.00" routeLength="1314.99" waitingTime="0.00" waitingCount="0" stopTime="0.00" timeLoss="29.79" rerouteNo="0" devices="tripinfo_32" vType="DEFAULT_VEHTYPE" speedFactor="1.18" vaporized=""/>
    <tripinfo id="33" depart="96.00" departLane="E0_0" departPos="5.10" departSpeed="0.00" departDelay="58.00" arrival="194.00" arrivalLane="E3_0" arrivalPos="90.46" arrivalSpeed="32.49" duration="98.00" routeLength="1314.99" waitingTime="0.00" waitingCount="0" stopTime="0.00" timeLoss="26.77" rerouteNo="0" devices="tripinfo_33" vType="DEFAULT_VEHTYPE" speedFactor="1.15" vaporized=""/>
    <tripinfo id="35" depart="102.00" departLane="E0_0" departPos="5.10" departSpeed="0.00" departDelay="63.00" arrival="195.00" arrivalLane="E3_0" arrivalPos="90.46" arrivalSpeed="31.51" duration="93.00" routeLength="1314.99" waitingTime="0.00" waitingCount="0" stopTime="0.00" timeLoss="23.16" rerouteNo="0" devices="tripinfo_35" vType="DEFAULT_VEHTYPE" speedFactor="1.17" vaporized=""/>
    <tripinfo id="37" depart="108.00" departLane="E0_0" departPos="5.10" departSpeed="0.00" departDelay="68.00" arrival="204.00" arrivalLane="E3_0" arrivalPos="90.46" arrivalSpeed="29.70" duration="96.00" routeLength="1314.99" waitingTime="0.00" waitingCount="0" stopTime="0.00" timeLoss="14.92" rerouteNo="0" devices="tripinfo_37" vType="DEFAULT_VEHTYPE" speedFactor="1.02" vaporized=""/>
    <tripinfo id="39" depart="114.00" departLane="E0_0" departPos="5.10" departSpeed="0.00" departDelay="69.00" arrival="205.00" arrivalLane="E3_0" arrivalPos="90.46" arrivalSpeed="32.48" duration="91.00" routeLength="1314.99" waitingTime="0.00" waitingCount="0" stopTime="0.00" timeLoss="21.24" rerouteNo="0" devices="tripinfo_39" vType="DEFAULT_VEHTYPE" speedFactor="1.18" vaporized=""/>
    <tripinfo id="40" depart="117.00" departLane="E0_0" departPos="5.10" departSpeed="0.00" departDelay="71.00" arrival="207.00" arrivalLane="E3_0" arrivalPos="90.46" arrivalSpeed="32.28" duration="90.00" routeLength="1314.99" waitingTime="0.00" waitingCount="0" stopTime="0.00" timeLoss="15.55" rerouteNo="0" devices="tripinfo_40" vType="DEFAULT_VEHTYPE" speedFactor="1.10" vaporized=""/>
    <tripinfo id="3" depart="6.00" departLane="E0_0" departPos="5.10" departSpeed="0.00" departDelay="3.00" arrival="216.00" arrivalLane="E3_0" arrivalPos="90.46" arrivalSpeed="24.35" duration="210.00" routeLength="1317.38" waitingTime="98.00" waitingCount="1" stopTime="0.00" timeLoss="118.32" rerouteNo="0" devices="tripinfo_3" vType="DEFAULT_VEHTYPE" speedFactor="0.94" vaporized=""/>
    <tripinfo id="8" depart="21.00" departLane="E0_0" departPos="5.10" departSpeed="0.00" departDelay="7.00" arrival="217.00" arrivalLane="E3_0" arrivalPos="90.46" arrivalSpeed="24.31" duration="196.00" routeLength="1317.38" waitingTime="91.00" waitingCount="1" stopTime="0.00" timeLoss="114.23" rerouteNo="0" devices="tripinfo_8" vType="DEFAULT_VEHTYPE" speedFactor="1.05" vaporized=""/>
    <tripinfo id="11" depart="30.00" departLane="E0_0" departPos="5.10" departSpeed="0.00" departDelay="13.00" arrival="219.00" arrivalLane="E3_0" arrivalPos="90.46" arrivalSpeed="23.95" duration="189.00" routeLength="1317.38" waitingTime="69.00" waitingCount="1" stopTime="0.00" timeLoss="89.37" rerouteNo="0" devices="tripinfo_11" vType="DEFAULT_VEHTYPE" speedFactor="0.86" vaporized=""/>
    <tripinfo id="13" depart="36.00" departLane="E0_0" departPos="5.10" departSpeed="0.00" departDelay="16.00" arrival="221.00" arrivalLane="E3_0" arrivalPos="90.46" arrivalSpeed="25.82" duration="185.00" routeLength="1317.38" waitingTime="69.00" waitingCount="1" stopTime="0.00" timeLoss="101.37" rerouteNo="0" devices="tripinfo_13" vType="DEFAULT_VEHTYPE" speedFactor="1.03" vaporized=""/>
    <tripinfo id="41" depart="120.00" departLane="E0_0" departPos="5.10" departSpeed="0.00" departDelay="74.00" arrival="226.00" arrivalLane="E3_0" arrivalPos="90.46" arrivalSpeed="26.65" duration="106.00" routeLength="1314.99" waitingTime="0.00" waitingCount="0" stopTime="0.00" timeLoss="14.98" rerouteNo="0" devices="tripinfo_41" vType="DEFAULT_VEHTYPE" speedFactor="0.90" vaporized=""/>
    <tripinfo id="42" depart="123.00" departLane="E0_0" departPos="5.10" departSpeed="0.00" departDelay="77.00" arrival="228.00" arrivalLane="E3_0" arrivalPos="90.46" arrivalSpeed="30.25" duration="105.00" routeLength="1314.99" waitingTime="0.00" waitingCount="0" stopTime="0.00" timeLoss="24.70" rerouteNo="0" devices="tripinfo_42" vType="DEFAULT_VEHTYPE" speedFactor="1.03" vaporized=""/>
    <tripinfo id="44" depart="129.00" departLane="E0_0" departPos="5.10" departSpeed="0.00" departDelay="78.00" arrival="229.00" arrivalLane="E3_0" arrivalPos="90.46" arrivalSpeed="30.28" duration="100.00" routeLength="1314.99" waitingTime="0.00" waitingCount="0" stopTime="0.00" timeLoss="24.66" rerouteNo="0" devices="tripinfo_44" vType="DEFAULT_VEHTYPE" speedFactor="1.09" vaporized=""/>
    <tripinfo id="45" depart="132.00" departLane="E0_0" departPos="5.10" departSpeed="0.00" departDelay="81.00" arrival="230.00" arrivalLane="E3_0" arrivalPos="90.46" arrivalSpeed="30.22" duration="98.00" routeLength="1314.99" waitingTime="0.00" waitingCount="0" stopTime="0.00" timeLoss="19.19" rerouteNo="0" devices="tripinfo_45" vType="DEFAULT_VEHTYPE" speedFactor="1.04" vaporized=""/>
    <tripinfo id="46" depart="135.00" departLane="E0_0" departPos="5.10" departSpeed="0.00" departDelay="83.00" arrival="232.00" arrivalLane="E3_0" arrivalPos="90.46" arrivalSpeed="30.24" duration="97.00" routeLength="1314.99" waitingTime="0.00" waitingCount="0" stopTime="0.00" timeLoss="17.79" rerouteNo="0" devices="tripinfo_46" vType="DEFAULT_VEHTYPE" speedFactor="1.04" vaporized=""/>
    <tripinfo id="47" depart="138.00" departLane="E0_0" departPos="5.10" departSpeed="0.00" departDelay="86.00" arrival="233.00" arrivalLane="E3_0" arrivalPos="90.46" arrivalSpeed="31.66" duration="95.00" routeLength="1314.99" waitingTime="0.00" waitingCount="0" stopTime="0.00" timeLoss="19.35" rerouteNo="0" devices="tripinfo_47" vType="DEFAULT_VEHTYPE" speedFactor="1.09" vaporized=""/>
    <tripinfo id="48" depart="141.00" departLane="E0_0" departPos="5.10" departSpeed="0.00" departDelay="88.00" arrival="238.00" arrivalLane="E3_0" arrivalPos="90.46" arrivalSpeed="29.11" duration="97.00" routeLength="1314.99" waitingTime="0.00" waitingCount="0" stopTime="0.00" timeLoss="14.75" rerouteNo="0" devices="tripinfo_48" vType="DEFAULT_VEHTYPE" speedFactor="1.00" vaporized=""/>
    <tripinfo id="19" depart="54.00" departLane="E0_0" departPos="5.10" departSpeed="0.00" departDelay="26.00" arrival="248.00" arrivalLane="E3_0" arrivalPos="90.46" arrivalSpeed="25.09" duration="194.00" routeLength="1317.38" waitingTime="76.00" waitingCount="2" stopTime="0.00" timeLoss="102.67" rerouteNo="0" devices="tripinfo_19" vType="DEFAULT_VEHTYPE" speedFactor="0.94" vaporized=""/>
    <tripinfo id="50" depart="147.00" departLane="E0_0" departPos="5.10" departSpeed="0.00" departDelay="89.00" arrival="255.00" arrivalLane="E3_0" arrivalPos="90.46" arrivalSpeed="26.22" duration="108.00" routeLength="1314.99" waitingTime="0.00" waitingCount="0" stopTime="0.00" timeLoss="13.80" rerouteNo="0" devices="tripinfo_50" vType="DEFAULT_VEHTYPE" speedFactor="0.88" vaporized=""/>
    <tripinfo id="53" depart="156.00" departLane="E0_0" departPos="5.10" departSpeed="0.00" departDelay="97.00" arrival="256.00" arrivalLane="E3_0" arrivalPos="90.46" arrivalSpeed="25.69" duration="100.00" routeLength="1314.99" waitingTime="0.00" waitingCount="0" stopTime="0.00" timeLoss="29.90" rerouteNo="0" devices="tripinfo_53" vType="DEFAULT_VEHTYPE" speedFactor="1.17" vaporized=""/>
    <tripinfo id="57" depart="168.00" departLane="E0_0" departPos="5.10" departSpeed="0.00" departDelay="107.00" arrival="263.00" arrivalLane="E3_0" arrivalPos="90.46" arrivalSpeed="29.86" duration="95.00" routeLength="1314.99" waitingTime="0.00" waitingCount="0" stopTime="0.00" timeLoss="12.86" rerouteNo="0" devices="tripinfo_57" vType="DEFAULT_VEHTYPE" speedFactor="1.00" vaporized=""/>
    <tripinfo id="21" depart="60.00" departLane="E0_0" departPos="5.10" departSpeed="0.00" departDelay="29.00" arrival="272.00" arrivalLane="E3_0" arrivalPos="90.46" arrivalSpeed="25.87" duration="212.00" routeLength="1317.38" waitingTime="96.00" waitingCount="3" stopTime="0.00" timeLoss="138.05" rerouteNo="0" devices="tripinfo_21" vType="DEFAULT_VEHTYPE" speedFactor="1.16" vaporized=""/>
    <tripinfo id="58" depart="171.00" departLane="E0_0" departPos="5.10" departSpeed="0.00" departDelay="110.00" arrival="276.00" arrivalLane="E3_0" arrivalPos="90.46" arrivalSpeed="26.09" duration="105.00" routeLength="1314.99" waitingTime="0.00" waitingCount="0" stopTime="0.00" timeLoss="13.48" rerouteNo="0" devices="tripinfo_58" vType="DEFAULT_VEHTYPE" speedFactor="0.90" vaporized=""/>
    <tripinfo id="59" depart="174.00" departLane="E0_0" departPos="5.10" departSpeed="0.00" departDelay="111.00" arrival="277.00" arrivalLane="E3_0" arrivalPos="90.46" arrivalSpeed="28.12" duration="103.00" routeLength="1314.99" waitingTime="0.00" waitingCount="0" stopTime="0.00" timeLoss="31.29" rerouteNo="0" devices="tripinfo_59" vType="DEFAULT_VEHTYPE" speedFactor="1.14" vaporized=""/>
    <tripinfo id="60" depart="177.00" departLane="E0_0" departPos="5.10" departSpeed="0.00" departDelay="114.00" arrival="279.00" arrivalLane="E3_0" arrivalPos="90.46" arrivalSpeed="30.10" duration="102.00" routeLength="1314.99" waitingTime="0.00" waitingCount="0" stopTime="0.00" timeLoss="21.45" rerouteNo="0" devices="tripinfo_60" vType="DEFAULT_VEHTYPE" speedFactor="1.02" vaporized=""/>
    <tripinfo id="62" depart="183.00" departLane="E0_0" departPos="5.10" departSpeed="0.00" departDelay="119.00" arrival="280.00" arrivalLane="E3_0" arrivalPos="90.46" arrivalSpeed="29.58" duration="97.00" routeLength="1314.99" waitingTime="0.00" waitingCount="0" stopTime="0.00" timeLoss="21.23" rerouteNo="0" devices="tripinfo_62" vType="DEFAULT_VEHTYPE" speedFactor="1.08" vaporized=""/>
    <tripinfo id="63" depart="186.00" departLane="E0_0" departPos="5.10" departSpeed="0.00" departDelay="122.00" arrival="281.00" arrivalLane="E3_0" arrivalPos="90.46" arrivalSpeed="28.88" duration="95.00" routeLength="1314.99" waitingTime="0.00" waitingCount="0" stopTime="0.00" timeLoss="21.77" rerouteNo="0" devices="tripinfo_63" vType="DEFAULT_VEHTYPE" speedFactor="1.12" vaporized=""/>
    <tripinfo id="64" depart="189.00" departLane="E0_0" departPos="5.10" departSpeed="0.00" departDelay="124.00" arrival="285.00" arrivalLane="E3_0" arrivalPos="90.46" arrivalSpeed="30.12" duration="96.00" routeLength="1314.99" waitingTime="0.00" waitingCount="0" stopTime="0.00" timeLoss="15.69" rerouteNo="0" devices="tripinfo_64" vType="DEFAULT_VEHTYPE" speedFactor="1.02" vaporized=""/>
    <tripinfo id="65" depart="192.00" departLane="E0_0" departPos="5.10" departSpeed="0.00" departDelay="124.00" arrival="290.00" arrivalLane="E3_0" arrivalPos="90.46" arrivalSpeed="29.13" duration="98.00" routeLength="1314.99" waitingTime="0.00" waitingCount="0" stopTime="0.00" timeLoss="14.17" rerouteNo="0" devices="tripinfo_65" vType="DEFAULT_VEHTYPE" speedFactor="0.99" vaporized=""/>
    <tripinfo id="66" depart="195.00" departLane="E0_0" departPos="5.10" departSpeed="0.00" departDelay="122.00" arrival="299.00" arrivalLane="E3_0" arrivalPos="90.46" arrivalSpeed="27.52" duration="104.00" routeLength="1314.99" waitingTime="0.00" waitingCount="0" stopTime="0.00" timeLoss="15.88" rerouteNo="0" devices="tripinfo_66" vType="DEFAULT_VEHTYPE" speedFactor="0.94" vaporized=""/>
    <tripinfo id="67" depart="198.00" departLane="E0_0" departPos="5.10" departSpeed="0.00" departDelay="122.00" arrival="307.00" arrivalLane="E3_0" arrivalPos="90.46" arrivalSpeed="26.08" duration="109.00" routeLength="1314.99" waitingTime="0.00" waitingCount="0" stopTime="0.00" timeLoss="15.64" rerouteNo="0" devices="tripinfo_67" vType="DEFAULT_VEHTYPE" speedFactor="0.88" vaporized=""/>
    <tripinfo id="69" depart="204.00" departLane="E0_0" departPos="5.10" departSpeed="0.00" departDelay="128.00" arrival="308.00" arrivalLane="E3_0" arrivalPos="90.46" arrivalSpeed="26.94" duration="104.00" routeLength="1314.99" waitingTime="0.00" waitingCount="0" stopTime="0.00" timeLoss="14.57" rerouteNo="0" devices="tripinfo_69" vType="DEFAULT_VEHTYPE" speedFactor="0.91" vaporized=""/>
    <tripinfo id="70" depart="206.00" departLane="E0_0" departPos="5.10" departSpeed="0.00" departDelay="127.00" arrival="310.00" arrivalLane="E3_0" arrivalPos="90.46" arrivalSpeed="29.00" duration="104.00" routeLength="1314.99" waitingTime="0.00" waitingCount="0" stopTime="0.00" timeLoss="24.79" rerouteNo="0" devices="tripinfo_70" vType="DEFAULT_VEHTYPE" speedFactor="1.04" vaporized=""/>
    <tripinfo id="72" depart="212.00" departLane="E0_0" departPos="5.10" departSpeed="0.00" departDelay="129.00" arrival="311.00" arrivalLane="E3_0" arrivalPos="90.46" arrivalSpeed="28.89" duration="99.00" routeLength="1314.99" waitingTime="0.00" waitingCount="0" stopTime="0.00" timeLoss="18.96" rerouteNo="0" devices="tripinfo_72" vType="DEFAULT_VEHTYPE" speedFactor="1.02" vaporized=""/>
    <tripinfo id="73" depart="215.00" departLane="E0_0" departPos="5.10" departSpeed="0.00" departDelay="128.00" arrival="314.00" arrivalLane="E3_0" arrivalPos="90.46" arrivalSpeed="28.43" duration="99.00" routeLength="1314.99" waitingTime="0.00" waitingCount="0" stopTime="0.00" timeLoss="14.04" rerouteNo="0" devices="tripinfo_73" vType="DEFAULT_VEHTYPE" speedFactor="0.97" vaporized=""/>
    <tripinfo id="74" depart="218.00" departLane="E0_0" departPos="5.10" departSpeed="0.00" departDelay="131.00" arrival="320.00" arrivalLane="E3_0" arrivalPos="90.46" arrivalSpeed="27.93" duration="102.00" routeLength="1314.99" waitingTime="0.00" waitingCount="0" stopTime="0.00" timeLoss="14.62" rerouteNo="0" devices="tripinfo_74" vType="DEFAULT_VEHTYPE" speedFactor="0.94" vaporized=""/>
    <tripinfo id="75" depart="221.00" departLane="E0_0" departPos="5.10" departSpeed="0.00" departDelay="133.00" arrival="321.00" arrivalLane="E3_0" arrivalPos="90.46" arrivalSpeed="29.06" duration="100.00" routeLength="1314.99" waitingTime="0.00" waitingCount="0" stopTime="0.00" timeLoss="22.56" rerouteNo="0" devices="tripinfo_75" vType="DEFAULT_VEHTYPE" speedFactor="1.06" vaporized=""/>
    <tripinfo id="76" depart="225.00" departLane="E0_0" departPos="5.10" departSpeed="0.00" departDelay="135.00" arrival="327.00" arrivalLane="E3_0" arrivalPos="90.46" arrivalSpeed="28.18" duration="102.00" routeLength="1314.99" waitingTime="0.00" waitingCount="0" stopTime="0.00" timeLoss="15.54" rerouteNo="0" devices="tripinfo_76" vType="DEFAULT_VEHTYPE" speedFactor="0.96" vaporized=""/>
    <tripinfo id="77" depart="228.00" departLane="E0_0" departPos="5.10" departSpeed="0.00" departDelay="136.00" arrival="328.00" arrivalLane="E3_0" arrivalPos="90.46" arrivalSpeed="29.26" duration="100.00" routeLength="1314.99" waitingTime="0.00" waitingCount="0" stopTime="0.00" timeLoss="16.70" rerouteNo="0" devices="tripinfo_77" vType="DEFAULT_VEHTYPE" speedFactor="0.98" vaporized=""/>
    <tripinfo id="78" depart="231.00" departLane="E0_0" departPos="5.10" departSpeed="0.00" departDelay="138.00" arrival="330.00" arrivalLane="E3_0" arrivalPos="90.46" arrivalSpeed="30.10" duration="99.00" routeLength="1314.99" waitingTime="0.00" waitingCount="0" stopTime="0.00" timeLoss="18.95" rerouteNo="0" devices="tripinfo_78" vType="DEFAULT_VEHTYPE" speedFactor="1.03" vaporized=""/>
    <tripinfo id="79" depart="234.00" departLane="E0_0" departPos="5.10" departSpeed="0.00" departDelay="140.00" arrival="332.00" arrivalLane="E3_0" arrivalPos="90.46" arrivalSpeed="29.05" duration="98.00" routeLength="1314.99" waitingTime="0.00" waitingCount="0" stopTime="0.00" timeLoss="13.97" rerouteNo="0" devices="tripinfo_79" vType="DEFAULT_VEHTYPE" speedFactor="0.98" vaporized=""/>
    <tripinfo id="81" depart="240.00" departLane="E0_0" departPos="5.10" departSpeed="0.00" departDelay="144.00" arrival="333.00" arrivalLane="E3_0" arrivalPos="90.46" arrivalSpeed="30.59" duration="93.00" routeLength="1314.99" waitingTime="0.00" waitingCount="0" stopTime="0.00" timeLoss="17.49" rerouteNo="0" devices="tripinfo_81" vType="DEFAULT_VEHTYPE" speedFactor="1.09" vaporized=""/>
    <tripinfo id="82" depart="244.00" departLane="E0_0" departPos="5.10" departSpeed="0.00" departDelay="148.00" arrival="337.00" arrivalLane="E3_0" arrivalPos="90.46" arrivalSpeed="29.92" duration="93.00" routeLength="1314.99" waitingTime="0.00" waitingCount="0" stopTime="0.00" timeLoss="13.44" rerouteNo="0" devices="tripinfo_82" vType="DEFAULT_VEHTYPE" speedFactor="1.03" vaporized=""/>
    <tripinfo id="83" depart="247.00" departLane="E0_0" departPos="5.10" departSpeed="0.00" departDelay="150.00" arrival="343.00" arrivalLane="E3_0" arrivalPos="90.46" arrivalSpeed="29.74" duration="96.00" routeLength="1314.99" waitingTime="0.00" waitingCount="0" stopTime="0.00" timeLoss="13.43" rerouteNo="0" devices="tripinfo_83" vType="DEFAULT_VEHTYPE" speedFactor="1.00" vaporized=""/>
    <tripinfo id="26" depart="75.00" departLane="E0_0" departPos="5.10" departSpeed="0.00" departDelay="41.00" arrival="353.00" arrivalLane="E3_0" arrivalPos="90.46" arrivalSpeed="24.51" duration="278.00" routeLength="1317.38" waitingTime="141.00" waitingCount="4" stopTime="0.00" timeLoss="173.62" rerouteNo="0" devices="tripinfo_26" vType="DEFAULT_VEHTYPE" speedFactor="0.83" vaporized=""/>
    <tripinfo id="85" depart="253.00" departLane="E0_0" departPos="5.10" departSpeed="0.00" departDelay="152.00" arrival="354.00" arrivalLane="E3_0" arrivalPos="90.46" arrivalSpeed="24.60" duration="101.00" routeLength="1314.99" waitingTime="0.00" waitingCount="0" stopTime="0.00" timeLoss="16.00" rerouteNo="0" devices="tripinfo_85" vType="DEFAULT_VEHTYPE" speedFactor="0.97" vaporized=""/>
    <tripinfo id="86" depart="256.00" departLane="E0_0" departPos="5.10" departSpeed="0.00" departDelay="154.00" arrival="356.00" arrivalLane="E3_0" arrivalPos="90.46" arrivalSpeed="25.26" duration="100.00" routeLength="1314.99" waitingTime="0.00" waitingCount="0" stopTime="0.00" timeLoss="28.06" rerouteNo="0" devices="tripinfo_86" vType="DEFAULT_VEHTYPE" speedFactor="1.15" vaporized=""/>
    <tripinfo id="87" depart="259.00" departLane="E0_0" departPos="5.10" departSpeed="0.00" departDelay="157.00" arrival="358.00" arrivalLane="E3_0" arrivalPos="90.46" arrivalSpeed="28.28" duration="99.00" routeLength="1314.99" waitingTime="0.00" waitingCount="0" stopTime="0.00" timeLoss="14.45" rerouteNo="0" devices="tripinfo_87" vType="DEFAULT_VEHTYPE" speedFactor="0.98" vaporized=""/>
    <tripinfo id="88" depart="262.00" departLane="E0_0" departPos="5.10" departSpeed="0.00" departDelay="158.00" arrival="360.00" arrivalLane="E3_0" arrivalPos="90.46" arrivalSpeed="29.83" duration="98.00" routeLength="1314.99" waitingTime="0.00" waitingCount="0" stopTime="0.00" timeLoss="15.50" rerouteNo="0" devices="tripinfo_88" vType="DEFAULT_VEHTYPE" speedFactor="1.00" vaporized=""/>
    <tripinfo id="90" depart="268.00" departLane="E0_0" departPos="5.10" departSpeed="0.00" departDelay="162.00" arrival="364.00" arrivalLane="E3_0" arrivalPos="90.46" arrivalSpeed="29.87" duration="96.00" routeLength="1314.99" waitingTime="0.00" waitingCount="0" stopTime="0.00" timeLoss="14.88" rerouteNo="0" devices="tripinfo_90" vType="DEFAULT_VEHTYPE" speedFactor="1.01" vaporized=""/>
    <tripinfo id="91" depart="271.00" departLane="E0_0" departPos="5.10" departSpeed="0.00" departDelay="165.00" arrival="366.00" arrivalLane="E3_0" arrivalPos="90.46" arrivalSpeed="30.25" duration="95.00" routeLength="1314.99" waitingTime="0.00" waitingCount="0" stopTime="0.00" timeLoss="15.09" rerouteNo="0" devices="tripinfo_91" vType="DEFAULT_VEHTYPE" speedFactor="1.02" vaporized=""/>