<?xml version="1.0" encoding="UTF-8"?>

<!-- generated on 2023-04-29 20:46:15 by Eclipse SUMO sumo Version 1.16.0
<configuration xmlns:xsi="http://www.w3.org/2001/XMLSchema-instance" xsi:noNamespaceSchemaLocation="http://sumo.dlr.de/xsd/sumoConfiguration.xsd">

    <input>
        <net-file value="C:\Users\Local_Man\Desktop\Stolen%20Music\school%20stuff%20for%20college\Semester%2015%20(UH%20Graduate%20School)\COSC%206364%20Nikolaos\SUMO_Project\COSC6364_Project\configurations\maps\4corners_neighborhoods.net.xml"/>
        <route-files value="./configurations/Rounds/4corners_neighborhoods.net.xml-test-3/Microscopic_DUE/007/Trips_File_007.rou.xml"/>
    </input>

    <output>
        <summary-output value="./configurations/Rounds/4corners_neighborhoods.net.xml-test-3/Microscopic_DUE/007/summary.xml"/>
        <tripinfo-output value="./configurations/Rounds/4corners_neighborhoods.net.xml-test-3/Microscopic_DUE/007/trips.trips.xml"/>
        <statistic-output value="./configurations/Rounds/4corners_neighborhoods.net.xml-test-3/Microscopic_DUE/007/stats_output.xml"/>
    </output>

    <time>
        <begin value="0"/>
    </time>

    <report>
        <log value="./configurations/Rounds/4corners_neighborhoods.net.xml-test-3/Microscopic_DUE/007/log.sumo.log"/>
        <no-step-log value="true"/>
    </report>

    <gui_only>
        <quit-on-end value="true"/>
    </gui_only>

</configuration>
-->

<tripinfos xmlns:xsi="http://www.w3.org/2001/XMLSchema-instance" xsi:noNamespaceSchemaLocation="http://sumo.dlr.de/xsd/tripinfo_file.xsd">
    <tripinfo id="29" depart="33.00" departLane="318908683#0_0" departPos="5.10" departSpeed="0.00" departDelay="0.00" arrival="80.00" arrivalLane="260998164#0_0" arrivalPos="257.55" arrivalSpeed="25.20" duration="47.00" routeLength="939.98" waitingTime="0.00" waitingCount="0" stopTime="0.00" timeLoss="7.09" rerouteNo="0" devices="tripinfo_29" vType="DEFAULT_VEHTYPE" speedFactor="0.95" vaporized=""/>
    <tripinfo id="10" depart="11.00" departLane="105681660#12_0" departPos="5.10" departSpeed="0.00" departDelay="3.00" arrival="89.00" arrivalLane="-597602753#1_0" arrivalPos="143.59" arrivalSpeed="20.05" duration="78.00" routeLength="1380.56" waitingTime="0.00" waitingCount="0" stopTime="0.00" timeLoss="10.35" rerouteNo="0" devices="tripinfo_10" vType="DEFAULT_VEHTYPE" speedFactor="0.94" vaporized=""/>
    <tripinfo id="12" depart="12.00" departLane="597602756#0_0" departPos="5.10" departSpeed="0.00" departDelay="0.00" arrival="94.00" arrivalLane="-597602753#1_0" arrivalPos="143.59" arrivalSpeed="22.97" duration="82.00" routeLength="1638.96" waitingTime="0.00" waitingCount="0" stopTime="0.00" timeLoss="13.65" rerouteNo="0" devices="tripinfo_12" vType="DEFAULT_VEHTYPE" speedFactor="1.09" vaporized=""/>
    <tripinfo id="4" depart="5.00" departLane="105681660#12_0" departPos="5.10" departSpeed="0.00" departDelay="0.00" arrival="99.00" arrivalLane="918280984_0" arrivalPos="38.78" arrivalSpeed="12.91" duration="94.00" routeLength="1405.13" waitingTime="0.00" waitingCount="0" stopTime="0.00" timeLoss="14.04" rerouteNo="0" devices="tripinfo_4" vType="DEFAULT_VEHTYPE" speedFactor="1.01" vaporized=""/>
    <tripinfo id="21" depart="19.00" departLane="422688973_0" departPos="5.10" departSpeed="0.00" departDelay="0.00" arrival="100.00" arrivalLane="-597602753#1_0" arrivalPos="143.59" arrivalSpeed="25.22" duration="81.00" routeLength="1128.03" waitingTime="0.00" waitingCount="0" stopTime="0.00" timeLoss="14.18" rerouteNo="0" devices="tripinfo_21" vType="DEFAULT_VEHTYPE" speedFactor="1.16" vaporized=""/>
    <tripinfo id="9" depart="8.00" departLane="-260998164#3_0" departPos="5.10" departSpeed="0.00" departDelay="1.00" arrival="107.00" arrivalLane="-597602756#0_0" arrivalPos="325.99" arrivalSpeed="18.52" duration="99.00" routeLength="1231.40" waitingTime="0.00" waitingCount="0" stopTime="0.00" timeLoss="17.27" rerouteNo="0" devices="tripinfo_9" vType="DEFAULT_VEHTYPE" speedFactor="0.89" vaporized=""/>
    <tripinfo id="3" depart="2.00" departLane="422685671#2_0" departPos="5.10" departSpeed="0.00" departDelay="0.00" arrival="109.00" arrivalLane="-105681660#20_0" arrivalPos="806.12" arrivalSpeed="20.07" duration="107.00" routeLength="1813.05" waitingTime="0.00" waitingCount="0" stopTime="0.00" timeLoss="21.34" rerouteNo="0" devices="tripinfo_3" vType="DEFAULT_VEHTYPE" speedFactor="0.94" vaporized=""/>
    <tripinfo id="5" depart="5.00" departLane="-260998164#3_0" departPos="5.10" departSpeed="0.00" departDelay="0.00" arrival="109.00" arrivalLane="-318908683#1_0" arrivalPos="71.22" arrivalSpeed="14.20" duration="104.00" routeLength="955.07" waitingTime="53.00" waitingCount="1" stopTime="0.00" timeLoss="68.11" rerouteNo="0" devices="tripinfo_5" vType="DEFAULT_VEHTYPE" speedFactor="1.08" vaporized=""/>
    <tripinfo id="28" depart="31.00" departLane="918280985_0" departPos="5.10" departSpeed="0.00" departDelay="0.00" arrival="114.00" arrivalLane="260998164#0_0" arrivalPos="257.55" arrivalSpeed="24.75" duration="83.00" routeLength="1460.33" waitingTime="2.00" waitingCount="1" stopTime="0.00" timeLoss="20.37" rerouteNo="0" devices="tripinfo_28" vType="DEFAULT_VEHTYPE" speedFactor="0.92" vaporized=""/>
    <tripinfo id="15" depart="13.00" departLane="422685671#2_0" departPos="5.10" departSpeed="0.00" departDelay="0.00" arrival="117.00" arrivalLane="260998164#0_0" arrivalPos="257.55" arrivalSpeed="30.53" duration="104.00" routeLength="1329.43" waitingTime="41.00" waitingCount="1" stopTime="0.00" timeLoss="60.96" rerouteNo="0" devices="tripinfo_15" vType="DEFAULT_VEHTYPE" speedFactor="1.12" vaporized=""/>
    <tripinfo id="38" depart="49.00" departLane="422685671#2_0" departPos="5.10" departSpeed="0.00" departDelay="0.00" arrival="123.00" arrivalLane="260998164#0_0" arrivalPos="257.55" arrivalSpeed="26.79" duration="74.00" routeLength="1329.43" waitingTime="5.00" waitingCount="1" stopTime="0.00" timeLoss="24.20" rerouteNo="0" devices="tripinfo_38" vType="DEFAULT_VEHTYPE" speedFactor="0.97" vaporized=""/>
    <tripinfo id="17" depart="15.00" departLane="918280985_0" departPos="5.10" departSpeed="0.00" departDelay="0.00" arrival="125.00" arrivalLane="-597602753#1_0" arrivalPos="143.59" arrivalSpeed="19.59" duration="110.00" routeLength="1123.56" waitingTime="16.00" waitingCount="1" stopTime="0.00" timeLoss="37.66" rerouteNo="0" devices="tripinfo_17" vType="DEFAULT_VEHTYPE" speedFactor="0.93" vaporized=""/>
    <tripinfo id="42" depart="51.00" departLane="422688973_0" departPos="5.10" departSpeed="0.00" departDelay="0.00" arrival="129.00" arrivalLane="-318908683#1_0" arrivalPos="71.22" arrivalSpeed="14.00" duration="78.00" routeLength="684.23" waitingTime="36.00" waitingCount="1" stopTime="0.00" timeLoss="50.96" rerouteNo="0" devices="tripinfo_42" vType="DEFAULT_VEHTYPE" speedFactor="1.03" vaporized=""/>
    <tripinfo id="40" depart="49.00" departLane="597602756#0_0" departPos="5.10" departSpeed="0.00" departDelay="0.00" arrival="132.00" arrivalLane="260998164#0_0" arrivalPos="257.55" arrivalSpeed="29.94" duration="83.00" routeLength="1239.91" waitingTime="0.00" waitingCount="0" stopTime="0.00" timeLoss="16.84" rerouteNo="0" devices="tripinfo_40" vType="DEFAULT_VEHTYPE" speedFactor="1.10" vaporized=""/>
    <tripinfo id="2" depart="1.00" departLane="422688973_0" departPos="5.10" departSpeed="0.00" departDelay="0.00" arrival="135.00" arrivalLane="-597602756#0_0" arrivalPos="325.99" arrivalSpeed="22.73" duration="134.00" routeLength="1606.33" waitingTime="21.00" waitingCount="2" stopTime="0.00" timeLoss="50.46" rerouteNo="0" devices="tripinfo_2" vType="DEFAULT_VEHTYPE" speedFactor="1.06" vaporized=""/>
    <tripinfo id="7" depart="8.00" departLane="918280985_0" departPos="5.10" departSpeed="0.00" departDelay="1.00" arrival="136.00" arrivalLane="-105681660#20_0" arrivalPos="806.12" arrivalSpeed="18.38" duration="128.00" routeLength="1360.98" waitingTime="23.00" waitingCount="1" stopTime="0.00" timeLoss="35.97" rerouteNo="0" devices="tripinfo_7" vType="DEFAULT_VEHTYPE" speedFactor="0.83" vaporized=""/>
    <tripinfo id="6" depart="5.00" departLane="918280985_0" departPos="5.10" departSpeed="0.00" departDelay="0.00" arrival="138.00" arrivalLane="-597602756#0_0" arrivalPos="325.99" arrivalSpeed="21.80" duration="133.00" routeLength="1615.08" waitingTime="24.00" waitingCount="1" stopTime="0.00" timeLoss="45.73" rerouteNo="0" devices="tripinfo_6" vType="DEFAULT_VEHTYPE" speedFactor="1.03" vaporized=""/>
    <tripinfo id="69" depart="83.00" departLane="918280985_0" departPos="5.10" departSpeed="0.00" departDelay="1.00" arrival="140.00" arrivalLane="-318908683#1_0" arrivalPos="71.22" arrivalSpeed="11.60" duration="57.00" routeLength="674.50" waitingTime="10.00" waitingCount="1" stopTime="0.00" timeLoss="23.60" rerouteNo="0" devices="tripinfo_69" vType="DEFAULT_VEHTYPE" speedFactor="0.91" vaporized=""/>
    <tripinfo id="36" depart="44.00" departLane="318908683#0_0" departPos="5.10" departSpeed="0.00" departDelay="0.00" arrival="142.00" arrivalLane="422688976#1_0" arrivalPos="294.40" arrivalSpeed="26.51" duration="98.00" routeLength="940.85" waitingTime="45.00" waitingCount="1" stopTime="0.00" timeLoss="61.38" rerouteNo="0" devices="tripinfo_36" vType="DEFAULT_VEHTYPE" speedFactor="0.99" vaporized=""/>
    <tripinfo id="22" depart="21.00" departLane="597602753#0_0" departPos="5.10" departSpeed="0.00" departDelay="0.00" arrival="143.00" arrivalLane="422688976#1_1" arrivalPos="294.40" arrivalSpeed="27.95" duration="122.00" routeLength="1788.22" waitingTime="12.00" waitingCount="2" stopTime="0.00" timeLoss="48.47" rerouteNo="0" devices="tripinfo_22" vType="DEFAULT_VEHTYPE" speedFactor="1.02" vaporized=""/>
    <tripinfo id="85" depart="104.00" departLane="918280985_0" departPos="5.10" departSpeed="0.00" departDelay="3.00" arrival="146.00" arrivalLane="-318908683#1_0" arrivalPos="71.22" arrivalSpeed="12.66" duration="42.00" routeLength="674.50" waitingTime="0.00" waitingCount="0" stopTime="0.00" timeLoss="10.76" rerouteNo="0" devices="tripinfo_85" vType="DEFAULT_VEHTYPE" speedFactor="0.97" vaporized=""/>
    <tripinfo id="23" depart="22.00" departLane="422685671#2_0" departPos="5.10" departSpeed="0.00" departDelay="0.00" arrival="147.00" arrivalLane="422688976#1_1" arrivalPos="294.40" arrivalSpeed="27.44" duration="125.00" routeLength="1317.05" waitingTime="52.00" waitingCount="1" stopTime="0.00" timeLoss="75.39" rerouteNo="0" devices="tripinfo_23" vType="DEFAULT_VEHTYPE" speedFactor="1.01" vaporized=""/>
    <tripinfo id="66" depart="80.00" departLane="918280985_0" departPos="5.10" departSpeed="0.00" departDelay="0.00" arrival="150.00" arrivalLane="15374898#0-AddedOffRampEdge_0" arrivalPos="100.00" arrivalSpeed="24.93" duration="70.00" routeLength="996.81" waitingTime="10.00" waitingCount="1" stopTime="0.00" timeLoss="28.18" rerouteNo="0" devices="tripinfo_66" vType="DEFAULT_VEHTYPE" speedFactor="0.94" vaporized=""/>
    <tripinfo id="31" depart="35.00" departLane="422688973_0" departPos="5.10" departSpeed="0.00" departDelay="0.00" arrival="152.00" arrivalLane="-597602753#1_0" arrivalPos="143.59" arrivalSpeed="19.69" duration="117.00" routeLength="1114.81" waitingTime="30.00" waitingCount="1" stopTime="0.00" timeLoss="46.54" rerouteNo="0" devices="tripinfo_31" vType="DEFAULT_VEHTYPE" speedFactor="0.93" vaporized=""/>
    <tripinfo id="44" depart="54.00" departLane="-260998164#3_0" departPos="5.10" departSpeed="0.00" departDelay="0.00" arrival="153.00" arrivalLane="918280984_0" arrivalPos="38.78" arrivalSpeed="14.30" duration="99.00" routeLength="1465.15" waitingTime="23.00" waitingCount="1" stopTime="0.00" timeLoss="46.34" rerouteNo="0" devices="tripinfo_44" vType="DEFAULT_VEHTYPE" speedFactor="1.09" vaporized=""/>
    <tripinfo id="14" depart="15.00" departLane="597602756#0_0" departPos="5.10" departSpeed="0.00" departDelay="2.00" arrival="154.00" arrivalLane="918280984_0" arrivalPos="38.78" arrivalSpeed="13.55" duration="139.00" routeLength="1883.00" waitingTime="20.00" waitingCount="1" stopTime="0.00" timeLoss="49.76" rerouteNo="0" devices="tripinfo_14" vType="DEFAULT_VEHTYPE" speedFactor="1.05" vaporized=""/>
    <tripinfo id="24" depart="26.00" departLane="422688973_0" departPos="5.10" departSpeed="0.00" departDelay="0.00" arrival="155.00" arrivalLane="-105681660#20_0" arrivalPos="806.12" arrivalSpeed="21.65" duration="129.00" routeLength="1352.23" waitingTime="37.00" waitingCount="1" stopTime="0.00" timeLoss="51.96" rerouteNo="0" devices="tripinfo_24" vType="DEFAULT_VEHTYPE" speedFactor="0.97" vaporized=""/>
    <tripinfo id="47" depart="57.00" departLane="318908683#0_0" departPos="5.10" departSpeed="0.00" departDelay="0.00" arrival="155.00" arrivalLane="260998164#0_0" arrivalPos="257.55" arrivalSpeed="29.07" duration="98.00" routeLength="939.98" waitingTime="51.00" waitingCount="1" stopTime="0.00" timeLoss="63.54" rerouteNo="0" devices="tripinfo_47" vType="DEFAULT_VEHTYPE" speedFactor="1.09" vaporized=""/>
    <tripinfo id="19" depart="19.00" departLane="422685671#2_0" departPos="5.10" departSpeed="0.00" departDelay="2.00" arrival="156.00" arrivalLane="918280984_0" arrivalPos="38.78" arrivalSpeed="12.35" duration="137.00" routeLength="1069.78" waitingTime="65.00" waitingCount="2" stopTime="0.00" timeLoss="90.85" rerouteNo="0" devices="tripinfo_19" vType="DEFAULT_VEHTYPE" speedFactor="0.94" vaporized=""/>
    <tripinfo id="32" depart="37.00" departLane="-260998164#3_0" departPos="5.10" departSpeed="0.00" departDelay="0.00" arrival="156.00" arrivalLane="-597602753#1_0" arrivalPos="143.59" arrivalSpeed="25.17" duration="119.00" routeLength="1979.71" waitingTime="15.00" waitingCount="2" stopTime="0.00" timeLoss="48.96" rerouteNo="0" devices="tripinfo_32" vType="DEFAULT_VEHTYPE" speedFactor="1.18" vaporized=""/>
    <tripinfo id="39" depart="49.00" departLane="422688973_0" departPos="5.10" departSpeed="0.00" departDelay="0.00" arrival="157.00" arrivalLane="-105681660#20_0" arrivalPos="806.12" arrivalSpeed="25.58" duration="108.00" routeLength="1352.23" waitingTime="17.00" waitingCount="1" stopTime="0.00" timeLoss="44.55" rerouteNo="0" devices="tripinfo_39" vType="DEFAULT_VEHTYPE" speedFactor="1.18" vaporized=""/>
    <tripinfo id="20" depart="18.00" departLane="597602753#0_0" departPos="5.10" departSpeed="0.00" departDelay="0.00" arrival="158.00" arrivalLane="15374898#0-AddedOffRampEdge_0" arrivalPos="100.00" arrivalSpeed="25.42" duration="140.00" routeLength="1964.42" waitingTime="2.00" waitingCount="1" stopTime="0.00" timeLoss="28.10" rerouteNo="0" devices="tripinfo_20" vType="DEFAULT_VEHTYPE" speedFactor="0.94" vaporized=""/>
    <tripinfo id="26" depart="30.00" departLane="422685671#2_0" departPos="5.10" departSpeed="0.00" departDelay="0.00" arrival="159.00" arrivalLane="918280984_0" arrivalPos="38.78" arrivalSpeed="10.95" duration="129.00" routeLength="1069.78" waitingTime="51.00" waitingCount="2" stopTime="0.00" timeLoss="76.16" rerouteNo="0" devices="tripinfo_26" vType="DEFAULT_VEHTYPE" speedFactor="0.83" vaporized=""/>
    <tripinfo id="77" depart="92.00" departLane="318908683#0_0" departPos="5.10" departSpeed="0.00" departDelay="0.00" arrival="166.00" arrivalLane="260998164#0_0" arrivalPos="257.55" arrivalSpeed="26.89" duration="74.00" routeLength="939.98" waitingTime="20.00" waitingCount="1" stopTime="0.00" timeLoss="36.53" rerouteNo="0" devices="tripinfo_77" vType="DEFAULT_VEHTYPE" speedFactor="0.98" vaporized=""/>
    <tripinfo id="8" depart="8.00" departLane="105681660#12_0" departPos="5.10" departSpeed="0.00" departDelay="1.00" arrival="167.00" arrivalLane="15374898#0-AddedOffRampEdge_0" arrivalPos="100.00" arrivalSpeed="28.58" duration="159.00" routeLength="2308.55" waitingTime="21.00" waitingCount="1" stopTime="0.00" timeLoss="50.29" rerouteNo="0" devices="tripinfo_8" vType="DEFAULT_VEHTYPE" speedFactor="1.05" vaporized=""/>
    <tripinfo id="55" depart="66.00" departLane="422688973_0" departPos="5.10" departSpeed="0.00" departDelay="0.00" arrival="168.00" arrivalLane="-597602753#1_0" arrivalPos="143.59" arrivalSpeed="23.29" duration="102.00" routeLength="1128.03" waitingTime="5.00" waitingCount="1" stopTime="0.00" timeLoss="31.58" rerouteNo="0" devices="tripinfo_55" vType="DEFAULT_VEHTYPE" speedFactor="1.10" vaporized=""/>
    <tripinfo id="81" depart="96.00" departLane="318908683#0_0" departPos="5.10" departSpeed="0.00" departDelay="0.00" arrival="168.00" arrivalLane="260998164#0_0" arrivalPos="257.55" arrivalSpeed="29.21" duration="72.00" routeLength="939.98" waitingTime="19.00" waitingCount="1" stopTime="0.00" timeLoss="37.42" rerouteNo="0" devices="tripinfo_81" vType="DEFAULT_VEHTYPE" speedFactor="1.09" vaporized=""/>
    <tripinfo id="90" depart="109.00" departLane="318908683#0_0" departPos="5.10" departSpeed="0.00" departDelay="0.00" arrival="172.00" arrivalLane="260998164#0_0" arrivalPos="257.55" arrivalSpeed="27.33" duration="63.00" routeLength="939.98" waitingTime="11.00" waitingCount="1" stopTime="0.00" timeLoss="26.05" rerouteNo="0" devices="tripinfo_90" vType="DEFAULT_VEHTYPE" speedFactor="1.01" vaporized=""/>
    <tripinfo id="13" depart="17.00" departLane="105681660#12_0" departPos="5.10" departSpeed="0.00" departDelay="5.00" arrival="173.00" arrivalLane="918280984_0" arrivalPos="38.78" arrivalSpeed="13.44" duration="156.00" routeLength="1405.13" waitingTime="42.00" waitingCount="2" stopTime="0.00" timeLoss="77.44" rerouteNo="0" devices="tripinfo_13" vType="DEFAULT_VEHTYPE" speedFactor="1.03" vaporized=""/>
    <tripinfo id="61" depart="72.00" departLane="-260998164#3_0" departPos="5.10" departSpeed="0.00" departDelay="0.00" arrival="173.00" arrivalLane="-597602756#0_0" arrivalPos="325.99" arrivalSpeed="20.55" duration="101.00" routeLength="1420.33" waitingTime="0.00" waitingCount="0" stopTime="0.00" timeLoss="16.90" rerouteNo="0" devices="tripinfo_61" vType="DEFAULT_VEHTYPE" speedFactor="0.97" vaporized=""/>
    <tripinfo id="99" depart="114.00" departLane="422688973_0" departPos="5.10" departSpeed="0.00" departDelay="0.00" arrival="176.00" arrivalLane="15374898#0-AddedOffRampEdge_0" arrivalPos="100.00" arrivalSpeed="24.55" duration="62.00" routeLength="1006.54" waitingTime="1.00" waitingCount="1" stopTime="0.00" timeLoss="21.23" rerouteNo="0" devices="tripinfo_99" vType="DEFAULT_VEHTYPE" speedFactor="0.91" vaporized=""/>
    <tripinfo id="34" depart="40.00" departLane="105681660#12_0" departPos="5.10" departSpeed="0.00" departDelay="0.00" arrival="177.00" arrivalLane="918280984_0" arrivalPos="38.78" arrivalSpeed="13.13" duration="137.00" routeLength="1405.13" waitingTime="28.00" waitingCount="1" stopTime="0.00" timeLoss="57.10" rerouteNo="0" devices="tripinfo_34" vType="DEFAULT_VEHTYPE" speedFactor="1.01" vaporized=""/>
    <tripinfo id="43" depart="54.00" departLane="422688973_0" departPos="5.10" departSpeed="0.00" departDelay="0.00" arrival="177.00" arrivalLane="-597602753#1_0" arrivalPos="143.59" arrivalSpeed="20.20" duration="123.00" routeLength="1128.03" waitingTime="15.00" waitingCount="2" stopTime="0.00" timeLoss="41.35" rerouteNo="0" devices="tripinfo_43" vType="DEFAULT_VEHTYPE" speedFactor="0.96" vaporized=""/>
    <tripinfo id="48" depart="60.00" departLane="597602753#0_0" departPos="5.10" departSpeed="0.00" departDelay="0.00" arrival="179.00" arrivalLane="918280984_0" arrivalPos="38.78" arrivalSpeed="13.10" duration="119.00" routeLength="1061.00" waitingTime="29.00" waitingCount="1" stopTime="0.00" timeLoss="46.59" rerouteNo="0" devices="tripinfo_48" vType="DEFAULT_VEHTYPE" speedFactor="1.00" vaporized=""/>
    <tripinfo id="30" depart="33.00" departLane="105681660#12_0" departPos="5.10" departSpeed="0.00" departDelay="0.00" arrival="184.00" arrivalLane="422688976#1_0" arrivalPos="294.40" arrivalSpeed="30.71" duration="151.00" routeLength="1630.66" waitingTime="32.00" waitingCount="2" stopTime="0.00" timeLoss="73.86" rerouteNo="0" devices="tripinfo_30" vType="DEFAULT_VEHTYPE" speedFactor="1.13" vaporized=""/>
    <tripinfo id="18" depart="16.00" departLane="422685671#2_0" departPos="5.10" departSpeed="0.00" departDelay="0.00" arrival="189.00" arrivalLane="-105681660#20_0" arrivalPos="806.12" arrivalSpeed="18.24" duration="173.00" routeLength="1813.05" waitingTime="55.00" waitingCount="1" stopTime="0.00" timeLoss="80.32" rerouteNo="0" devices="tripinfo_18" vType="DEFAULT_VEHTYPE" speedFactor="0.88" vaporized=""/>
    <tripinfo id="53" depart="64.00" departLane="597602756#0_0" departPos="5.10" departSpeed="0.00" departDelay="0.00" arrival="195.00" arrivalLane="15374898#0-AddedOffRampEdge_1" arrivalPos="100.00" arrivalSpeed="32.04" duration="131.00" routeLength="2043.36" waitingTime="15.00" waitingCount="1" stopTime="0.00" timeLoss="43.95" rerouteNo="0" devices="tripinfo_53" vType="DEFAULT_VEHTYPE" speedFactor="1.17" vaporized=""/>
    <tripinfo id="58" depart="71.00" departLane="918280985_0" departPos="5.10" departSpeed="0.00" departDelay="3.00" arrival="195.00" arrivalLane="-105681660#20_0" arrivalPos="806.12" arrivalSpeed="19.93" duration="124.00" routeLength="1360.98" waitingTime="16.00" waitingCount="2" stopTime="0.00" timeLoss="38.56" rerouteNo="0" devices="tripinfo_58" vType="DEFAULT_VEHTYPE" speedFactor="0.90" vaporized=""/>
    <tripinfo id="80" depart="96.00" departLane="597602756#0_0" departPos="5.10" departSpeed="0.00" departDelay="0.00" arrival="195.00" arrivalLane="260998164#0_0" arrivalPos="257.55" arrivalSpeed="27.10" duration="99.00" routeLength="1716.95" waitingTime="0.00" waitingCount="0" stopTime="0.00" timeLoss="15.45" rerouteNo="0" devices="tripinfo_80" vType="DEFAULT_VEHTYPE" speedFactor="1.01" vaporized=""/>
    <tripinfo id="57" depart="68.00" departLane="918280985_0" departPos="5.10" departSpeed="0.00" departDelay="1.00" arrival="196.00" arrivalLane="260998164#0_0" arrivalPos="257.55" arrivalSpeed="27.00" duration="128.00" routeLength="1460.33" waitingTime="45.00" waitingCount="2" stopTime="0.00" timeLoss="71.64" rerouteNo="0" devices="tripinfo_57" vType="DEFAULT_VEHTYPE" speedFactor="1.00" vaporized=""/>
    <tripinfo id="67" depart="81.00" departLane="-260998164#3_0" departPos="5.10" departSpeed="0.00" departDelay="0.00" arrival="197.00" arrivalLane="15374898#0-AddedOffRampEdge_0" arrivalPos="100.00" arrivalSpeed="24.29" duration="116.00" routeLength="1332.80" waitingTime="45.00" waitingCount="1" stopTime="0.00" timeLoss="61.41" rerouteNo="0" devices="tripinfo_67" vType="DEFAULT_VEHTYPE" speedFactor="0.88" vaporized=""/>
    <tripinfo id="16" depart="14.00" departLane="597602753#0_0" departPos="5.10" departSpeed="0.00" departDelay="0.00" arrival="198.00" arrivalLane="260998164#0_0" arrivalPos="257.55" arrivalSpeed="26.56" duration="184.00" routeLength="2427.94" waitingTime="24.00" waitingCount="2" stopTime="0.00" timeLoss="61.39" rerouteNo="0" devices="tripinfo_16" vType="DEFAULT_VEHTYPE" speedFactor="0.99" vaporized=""/>
    <tripinfo id="95" depart="117.00" departLane="-260998164#3_0" departPos="5.10" departSpeed="0.00" departDelay="6.00" arrival="199.00" arrivalLane="15374898#0-AddedOffRampEdge_1" arrivalPos="100.00" arrivalSpeed="25.53" duration="82.00" routeLength="1332.80" waitingTime="11.00" waitingCount="1" stopTime="0.00" timeLoss="29.91" rerouteNo="0" devices="tripinfo_95" vType="DEFAULT_VEHTYPE" speedFactor="0.92" vaporized=""/>
    <tripinfo id="79" depart="101.00" departLane="918280985_0" departPos="5.10" departSpeed="0.00" departDelay="6.00" arrival="200.00" arrivalLane="260998164#0_0" arrivalPos="257.55" arrivalSpeed="26.89" duration="99.00" routeLength="1460.33" waitingTime="18.00" waitingCount="1" stopTime="0.00" timeLoss="41.29" rerouteNo="0" devices="tripinfo_79" vType="DEFAULT_VEHTYPE" speedFactor="0.98" vaporized=""/>
    <tripinfo id="96" depart="123.00" departLane="-260998164#3_0" departPos="5.10" departSpeed="0.00" departDelay="11.00" arrival="200.00" arrivalLane="15374898#0-AddedOffRampEdge_0" arrivalPos="100.00" arrivalSpeed="27.23" duration="77.00" routeLength="1332.80" waitingTime="6.00" waitingCount="2" stopTime="0.00" timeLoss="32.83" rerouteNo="0" devices="tripinfo_96" vType="DEFAULT_VEHTYPE" speedFactor="1.09" vaporized=""/>
    <tripinfo id="60" depart="70.00" departLane="597602756#0_0" departPos="5.10" departSpeed="0.00" departDelay="0.00" arrival="201.00" arrivalLane="-318908683#1_0" arrivalPos="71.22" arrivalSpeed="13.22" duration="131.00" routeLength="1382.88" waitingTime="37.00" waitingCount="1" stopTime="0.00" timeLoss="56.83" rerouteNo="0" devices="tripinfo_60" vType="DEFAULT_VEHTYPE" speedFactor="1.02" vaporized=""/>
    <tripinfo id="35" depart="43.00" departLane="105681660#12_0" departPos="5.10" departSpeed="0.00" departDelay="2.00" arrival="202.00" arrivalLane="-318908683#1_0" arrivalPos="71.22" arrivalSpeed="15.92" duration="159.00" routeLength="1835.34" waitingTime="26.00" waitingCount="1" stopTime="0.00" timeLoss="74.93" rerouteNo="0" devices="tripinfo_35" vType="DEFAULT_VEHTYPE" speedFactor="1.17" vaporized=""/>
    <tripinfo id="41" depart="50.00" departLane="597602753#0_0" departPos="5.10" departSpeed="0.00" departDelay="0.00" arrival="202.00" arrivalLane="15374898#0-AddedOffRampEdge_1" arrivalPos="100.00" arrivalSpeed="24.46" duration="152.00" routeLength="1981.16" waitingTime="12.00" waitingCount="1" stopTime="0.00" timeLoss="45.10" rerouteNo="0" devices="tripinfo_41" vType="DEFAULT_VEHTYPE" speedFactor="0.90" vaporized=""/>
    <tripinfo id="65" depart="80.00" departLane="318908683#0_0" departPos="5.10" departSpeed="0.00" departDelay="0.00" arrival="203.00" arrivalLane="-597602753#1_0" arrivalPos="143.59" arrivalSpeed="21.47" duration="123.00" routeLength="1208.14" waitingTime="33.00" waitingCount="2" stopTime="0.00" timeLoss="65.30" rerouteNo="0" devices="tripinfo_65" vType="DEFAULT_VEHTYPE" speedFactor="0.99" vaporized=""/>
    <tripinfo id="84" depart="100.00" departLane="-260998164#3_0" departPos="5.10" departSpeed="0.00" departDelay="0.00" arrival="205.00" arrivalLane="422688976#1_1" arrivalPos="294.40" arrivalSpeed="27.40" duration="105.00" routeLength="1702.46" waitingTime="15.00" waitingCount="2" stopTime="0.00" timeLoss="44.13" rerouteNo="0" devices="tripinfo_84" vType="DEFAULT_VEHTYPE" speedFactor="1.02" vaporized=""/>
    <tripinfo id="98" depart="126.00" departLane="-260998164#3_0" departPos="5.10" departSpeed="0.00" departDelay="12.00" arrival="205.00" arrivalLane="-318908683#1_0" arrivalPos="71.22" arrivalSpeed="13.85" duration="79.00" routeLength="955.07" waitingTime="25.00" waitingCount="1" stopTime="0.00" timeLoss="40.25" rerouteNo="0" devices="tripinfo_98" vType="DEFAULT_VEHTYPE" speedFactor="1.01" vaporized=""/>
    <tripinfo id="63" depart="77.00" departLane="422685671#2_0" departPos="5.10" departSpeed="0.00" departDelay="0.00" arrival="206.00" arrivalLane="422688976#1_0" arrivalPos="294.40" arrivalSpeed="29.24" duration="129.00" routeLength="1317.05" waitingTime="45.00" waitingCount="2" stopTime="0.00" timeLoss="83.92" rerouteNo="0" devices="tripinfo_63" vType="DEFAULT_VEHTYPE" speedFactor="1.12" vaporized=""/>
    <tripinfo id="100" depart="114.00" departLane="318908683#0_0" departPos="5.10" departSpeed="0.00" departDelay="0.00" arrival="206.00" arrivalLane="-597602756#0_0" arrivalPos="325.99" arrivalSpeed="23.73" duration="92.00" routeLength="1401.85" waitingTime="9.00" waitingCount="1" stopTime="0.00" timeLoss="32.86" rerouteNo="0" devices="tripinfo_100" vType="DEFAULT_VEHTYPE" speedFactor="1.12" vaporized=""/>
    <tripinfo id="37" depart="44.00" departLane="597602753#0_0" departPos="5.10" departSpeed="0.00" departDelay="0.00" arrival="207.00" arrivalLane="422688976#1_1" arrivalPos="294.40" arrivalSpeed="27.12" duration="163.00" routeLength="1788.22" waitingTime="48.00" waitingCount="2" stopTime="0.00" timeLoss="89.31" rerouteNo="0" devices="tripinfo_37" vType="DEFAULT_VEHTYPE" speedFactor="1.02" vaporized=""/>
    <tripinfo id="125" depart="145.00" departLane="-260998164#3_0" departPos="5.10" departSpeed="0.00" departDelay="0.00" arrival="207.00" arrivalLane="-318908683#1_0" arrivalPos="71.22" arrivalSpeed="14.21" duration="62.00" routeLength="955.07" waitingTime="7.00" waitingCount="1" stopTime="0.00" timeLoss="23.71" rerouteNo="0" devices="tripinfo_125" vType="DEFAULT_VEHTYPE" speedFactor="1.02" vaporized=""/>
    <tripinfo id="110" depart="129.00" departLane="318908683#0_0" departPos="5.10" departSpeed="0.00" departDelay="3.00" arrival="212.00" arrivalLane="-597602756#0_0" arrivalPos="325.99" arrivalSpeed="23.24" duration="83.00" routeLength="1401.85" waitingTime="0.00" waitingCount="0" stopTime="0.00" timeLoss="19.60" rerouteNo="0" devices="tripinfo_110" vType="DEFAULT_VEHTYPE" speedFactor="1.06" vaporized=""/>
    <tripinfo id="119" depart="138.00" departLane="918280985_0" departPos="5.10" departSpeed="0.00" departDelay="0.00" arrival="212.00" arrivalLane="15374898#0-AddedOffRampEdge_0" arrivalPos="100.00" arrivalSpeed="27.15" duration="74.00" routeLength="996.81" waitingTime="17.00" waitingCount="1" stopTime="0.00" timeLoss="34.98" rerouteNo="0" devices="tripinfo_119" vType="DEFAULT_VEHTYPE" speedFactor="1.00" vaporized=""/>
    <tripinfo id="52" depart="64.00" departLane="422685671#2_0" departPos="5.10" departSpeed="0.00" departDelay="0.00" arrival="213.00" arrivalLane="-105681660#20_0" arrivalPos="806.12" arrivalSpeed="17.96" duration="149.00" routeLength="1813.05" waitingTime="24.00" waitingCount="2" stopTime="0.00" timeLoss="54.69" rerouteNo="0" devices="tripinfo_52" vType="DEFAULT_VEHTYPE" speedFactor="0.85" vaporized=""/>
    <tripinfo id="50" depart="63.00" departLane="318908683#0_0" departPos="5.10" departSpeed="0.00" departDelay="0.00" arrival="215.00" arrivalLane="-105681660#20_0" arrivalPos="806.12" arrivalSpeed="19.22" duration="152.00" routeLength="1436.85" waitingTime="49.00" waitingCount="2" stopTime="0.00" timeLoss="73.68" rerouteNo="0" devices="tripinfo_50" vType="DEFAULT_VEHTYPE" speedFactor="0.88" vaporized=""/>