<?xml version="1.0" encoding="UTF-8"?>

<!-- generated on 2023-04-29 23:57:03 by Eclipse SUMO sumo Version 1.16.0
<configuration xmlns:xsi="http://www.w3.org/2001/XMLSchema-instance" xsi:noNamespaceSchemaLocation="http://sumo.dlr.de/xsd/sumoConfiguration.xsd">

    <input>
        <net-file value="C:\Users\Local_Man\Desktop\Stolen%20Music\school%20stuff%20for%20college\Semester%2015%20(UH%20Graduate%20School)\COSC%206364%20Nikolaos\SUMO_Project\COSC6364_Project\configurations\maps\Braess_Homebrew_fixed1.net.xml"/>
        <route-files value="./configurations/Rounds/Braess_Homebrew_fixed1.net.xml-test-3/Macroscopic_DUE/010/Trips_File_010.rou.xml"/>
    </input>

    <output>
        <summary-output value="./configurations/Rounds/Braess_Homebrew_fixed1.net.xml-test-3/Macroscopic_DUE/010/summary.xml"/>
        <tripinfo-output value="./configurations/Rounds/Braess_Homebrew_fixed1.net.xml-test-3/Macroscopic_DUE/010/trips.trips.xml"/>
        <statistic-output value="./configurations/Rounds/Braess_Homebrew_fixed1.net.xml-test-3/Macroscopic_DUE/010/stats_output.xml"/>
    </output>

    <time>
        <begin value="0"/>
    </time>

    <report>
        <log value="./configurations/Rounds/Braess_Homebrew_fixed1.net.xml-test-3/Macroscopic_DUE/010/log.sumo.log"/>
        <no-step-log value="true"/>
    </report>

    <gui_only>
        <quit-on-end value="true"/>
    </gui_only>

</configuration>
-->

<tripinfos xmlns:xsi="http://www.w3.org/2001/XMLSchema-instance" xsi:noNamespaceSchemaLocation="http://sumo.dlr.de/xsd/tripinfo_file.xsd">
    <tripinfo id="3" depart="2.00" departLane="E0_0" departPos="5.10" departSpeed="16.96" departDelay="1.00" arrival="88.00" arrivalLane="E3_0" arrivalPos="90.46" arrivalSpeed="31.65" duration="86.00" routeLength="1314.99" waitingTime="0.00" waitingCount="0" stopTime="0.00" timeLoss="9.66" rerouteNo="0" devices="tripinfo_3" vType="DEFAULT_VEHTYPE" speedFactor="1.08" vaporized=""/>
    <tripinfo id="4" depart="3.00" departLane="E0_0" departPos="5.10" departSpeed="14.44" departDelay="1.00" arrival="89.00" arrivalLane="E3_0" arrivalPos="90.46" arrivalSpeed="33.62" duration="86.00" routeLength="1314.99" waitingTime="0.00" waitingCount="0" stopTime="0.00" timeLoss="17.43" rerouteNo="0" devices="tripinfo_4" vType="DEFAULT_VEHTYPE" speedFactor="1.20" vaporized=""/>
    <tripinfo id="5" depart="4.00" departLane="E0_0" departPos="5.10" departSpeed="10.75" departDelay="1.00" arrival="96.00" arrivalLane="E3_0" arrivalPos="90.46" arrivalSpeed="31.12" duration="92.00" routeLength="1314.99" waitingTime="0.00" waitingCount="0" stopTime="0.00" timeLoss="13.87" rerouteNo="0" devices="tripinfo_5" vType="DEFAULT_VEHTYPE" speedFactor="1.05" vaporized=""/>
    <tripinfo id="6" depart="5.00" departLane="E0_0" departPos="5.10" departSpeed="7.88" departDelay="1.00" arrival="98.00" arrivalLane="E3_0" arrivalPos="90.46" arrivalSpeed="31.74" duration="93.00" routeLength="1314.99" waitingTime="0.00" waitingCount="0" stopTime="0.00" timeLoss="16.24" rerouteNo="0" devices="tripinfo_6" vType="DEFAULT_VEHTYPE" speedFactor="1.08" vaporized=""/>
    <tripinfo id="8" depart="9.00" departLane="E0_0" departPos="5.10" departSpeed="6.17" departDelay="4.00" arrival="104.00" arrivalLane="E3_0" arrivalPos="90.46" arrivalSpeed="29.37" duration="95.00" routeLength="1314.99" waitingTime="0.00" waitingCount="0" stopTime="0.00" timeLoss="14.52" rerouteNo="0" devices="tripinfo_8" vType="DEFAULT_VEHTYPE" speedFactor="1.02" vaporized=""/>
    <tripinfo id="10" depart="13.00" departLane="E0_0" departPos="5.10" departSpeed="5.70" departDelay="7.00" arrival="119.00" arrivalLane="E3_0" arrivalPos="90.46" arrivalSpeed="26.90" duration="106.00" routeLength="1314.99" waitingTime="0.00" waitingCount="0" stopTime="0.00" timeLoss="17.01" rerouteNo="0" devices="tripinfo_10" vType="DEFAULT_VEHTYPE" speedFactor="0.92" vaporized=""/>
    <tripinfo id="11" depart="15.00" departLane="E0_0" departPos="5.10" departSpeed="5.79" departDelay="8.00" arrival="121.00" arrivalLane="E3_0" arrivalPos="90.46" arrivalSpeed="29.92" duration="106.00" routeLength="1314.99" waitingTime="0.00" waitingCount="0" stopTime="0.00" timeLoss="32.37" rerouteNo="0" devices="tripinfo_11" vType="DEFAULT_VEHTYPE" speedFactor="1.12" vaporized=""/>
    <tripinfo id="12" depart="17.00" departLane="E0_0" departPos="5.10" departSpeed="5.97" departDelay="9.00" arrival="125.00" arrivalLane="E3_0" arrivalPos="90.46" arrivalSpeed="26.66" duration="108.00" routeLength="1314.99" waitingTime="0.00" waitingCount="0" stopTime="0.00" timeLoss="17.17" rerouteNo="0" devices="tripinfo_12" vType="DEFAULT_VEHTYPE" speedFactor="0.90" vaporized=""/>
    <tripinfo id="14" depart="21.00" departLane="E0_0" departPos="5.10" departSpeed="7.84" departDelay="10.00" arrival="127.00" arrivalLane="E3_0" arrivalPos="90.46" arrivalSpeed="30.25" duration="106.00" routeLength="1314.99" waitingTime="0.00" waitingCount="0" stopTime="0.00" timeLoss="26.93" rerouteNo="0" devices="tripinfo_14" vType="DEFAULT_VEHTYPE" speedFactor="1.04" vaporized=""/>
    <tripinfo id="18" depart="28.00" departLane="E0_0" departPos="5.10" departSpeed="3.74" departDelay="14.00" arrival="128.00" arrivalLane="E3_0" arrivalPos="90.46" arrivalSpeed="30.35" duration="100.00" routeLength="1314.99" waitingTime="0.00" waitingCount="0" stopTime="0.00" timeLoss="20.38" rerouteNo="0" devices="tripinfo_18" vType="DEFAULT_VEHTYPE" speedFactor="1.03" vaporized=""/>
    <tripinfo id="20" depart="33.00" departLane="E0_0" departPos="5.10" departSpeed="3.83" departDelay="18.00" arrival="135.00" arrivalLane="E3_0" arrivalPos="90.46" arrivalSpeed="29.46" duration="102.00" routeLength="1314.99" waitingTime="0.00" waitingCount="0" stopTime="0.00" timeLoss="20.29" rerouteNo="0" devices="tripinfo_20" vType="DEFAULT_VEHTYPE" speedFactor="1.01" vaporized=""/>
    <tripinfo id="2" depart="1.00" departLane="E0_0" departPos="5.10" departSpeed="19.50" departDelay="0.00" arrival="145.00" arrivalLane="E3_0" arrivalPos="90.46" arrivalSpeed="25.43" duration="144.00" routeLength="1317.38" waitingTime="39.00" waitingCount="1" stopTime="0.00" timeLoss="55.73" rerouteNo="0" devices="tripinfo_2" vType="DEFAULT_VEHTYPE" speedFactor="0.98" vaporized=""/>
    <tripinfo id="21" depart="35.00" departLane="E0_0" departPos="5.10" departSpeed="1.07" departDelay="18.00" arrival="149.00" arrivalLane="E3_0" arrivalPos="90.46" arrivalSpeed="25.98" duration="114.00" routeLength="1314.99" waitingTime="0.00" waitingCount="0" stopTime="0.00" timeLoss="20.32" rerouteNo="0" devices="tripinfo_21" vType="DEFAULT_VEHTYPE" speedFactor="0.87" vaporized=""/>
    <tripinfo id="22" depart="39.00" departLane="E0_0" departPos="5.10" departSpeed="6.25" departDelay="21.00" arrival="151.00" arrivalLane="E3_0" arrivalPos="90.46" arrivalSpeed="29.54" duration="112.00" routeLength="1314.99" waitingTime="0.00" waitingCount="0" stopTime="0.00" timeLoss="31.91" rerouteNo="0" devices="tripinfo_22" vType="DEFAULT_VEHTYPE" speedFactor="1.03" vaporized=""/>
    <tripinfo id="23" depart="41.00" departLane="E0_0" departPos="5.10" departSpeed="6.93" departDelay="23.00" arrival="152.00" arrivalLane="E3_0" arrivalPos="90.46" arrivalSpeed="29.44" duration="111.00" routeLength="1314.99" waitingTime="0.00" waitingCount="0" stopTime="0.00" timeLoss="38.52" rerouteNo="0" devices="tripinfo_23" vType="DEFAULT_VEHTYPE" speedFactor="1.13" vaporized=""/>
    <tripinfo id="24" depart="43.00" departLane="E0_0" departPos="5.10" departSpeed="7.77" departDelay="24.00" arrival="155.00" arrivalLane="E3_0" arrivalPos="90.46" arrivalSpeed="26.33" duration="112.00" routeLength="1314.99" waitingTime="0.00" waitingCount="0" stopTime="0.00" timeLoss="19.84" rerouteNo="0" devices="tripinfo_24" vType="DEFAULT_VEHTYPE" speedFactor="0.89" vaporized=""/>
    <tripinfo id="25" depart="45.00" departLane="E0_0" departPos="5.10" departSpeed="9.42" departDelay="26.00" arrival="156.00" arrivalLane="E3_0" arrivalPos="90.46" arrivalSpeed="27.91" duration="111.00" routeLength="1314.99" waitingTime="0.00" waitingCount="0" stopTime="0.00" timeLoss="39.75" rerouteNo="0" devices="tripinfo_25" vType="DEFAULT_VEHTYPE" speedFactor="1.15" vaporized=""/>
    <tripinfo id="26" depart="46.00" departLane="E0_0" departPos="5.10" departSpeed="4.96" departDelay="27.00" arrival="157.00" arrivalLane="E3_0" arrivalPos="90.46" arrivalSpeed="28.21" duration="111.00" routeLength="1314.99" waitingTime="0.00" waitingCount="0" stopTime="0.00" timeLoss="38.00" rerouteNo="0" devices="tripinfo_26" vType="DEFAULT_VEHTYPE" speedFactor="1.12" vaporized=""/>
    <tripinfo id="27" depart="48.00" departLane="E0_0" departPos="5.10" departSpeed="2.45" departDelay="28.00" arrival="159.00" arrivalLane="E3_0" arrivalPos="90.46" arrivalSpeed="28.94" duration="111.00" routeLength="1314.99" waitingTime="0.00" waitingCount="0" stopTime="0.00" timeLoss="28.06" rerouteNo="0" devices="tripinfo_27" vType="DEFAULT_VEHTYPE" speedFactor="0.99" vaporized=""/>
    <tripinfo id="28" depart="51.00" departLane="E0_0" departPos="5.10" departSpeed="3.47" departDelay="31.00" arrival="160.00" arrivalLane="E3_0" arrivalPos="90.46" arrivalSpeed="28.75" duration="109.00" routeLength="1314.99" waitingTime="0.00" waitingCount="0" stopTime="0.00" timeLoss="24.65" rerouteNo="0" devices="tripinfo_28" vType="DEFAULT_VEHTYPE" speedFactor="0.97" vaporized=""/>
    <tripinfo id="30" depart="56.00" departLane="E0_0" departPos="5.10" departSpeed="5.61" departDelay="33.00" arrival="165.00" arrivalLane="E3_0" arrivalPos="90.46" arrivalSpeed="27.20" duration="109.00" routeLength="1314.99" waitingTime="0.00" waitingCount="0" stopTime="0.00" timeLoss="21.28" rerouteNo="0" devices="tripinfo_30" vType="DEFAULT_VEHTYPE" speedFactor="0.94" vaporized=""/>
    <tripinfo id="31" depart="58.00" departLane="E0_0" departPos="5.10" departSpeed="6.19" departDelay="29.00" arrival="166.00" arrivalLane="E3_0" arrivalPos="90.46" arrivalSpeed="30.21" duration="108.00" routeLength="1314.99" waitingTime="0.00" waitingCount="0" stopTime="0.00" timeLoss="33.58" rerouteNo="0" devices="tripinfo_31" vType="DEFAULT_VEHTYPE" speedFactor="1.10" vaporized=""/>
    <tripinfo id="33" depart="62.00" departLane="E0_0" departPos="5.10" departSpeed="4.41" departDelay="31.00" arrival="168.00" arrivalLane="E3_0" arrivalPos="90.46" arrivalSpeed="30.35" duration="106.00" routeLength="1314.99" waitingTime="0.00" waitingCount="0" stopTime="0.00" timeLoss="25.52" rerouteNo="0" devices="tripinfo_33" vType="DEFAULT_VEHTYPE" speedFactor="1.03" vaporized=""/>
    <tripinfo id="34" depart="64.00" departLane="E0_0" departPos="5.10" departSpeed="2.64" departDelay="31.00" arrival="169.00" arrivalLane="E3_0" arrivalPos="90.46" arrivalSpeed="31.15" duration="105.00" routeLength="1314.99" waitingTime="0.00" waitingCount="0" stopTime="0.00" timeLoss="27.54" rerouteNo="0" devices="tripinfo_34" vType="DEFAULT_VEHTYPE" speedFactor="1.07" vaporized=""/>
    <tripinfo id="35" depart="67.00" departLane="E0_0" departPos="5.10" departSpeed="4.00" departDelay="34.00" arrival="170.00" arrivalLane="E3_0" arrivalPos="90.46" arrivalSpeed="30.98" duration="103.00" routeLength="1314.99" waitingTime="0.00" waitingCount="0" stopTime="0.00" timeLoss="24.19" rerouteNo="0" devices="tripinfo_35" vType="DEFAULT_VEHTYPE" speedFactor="1.04" vaporized=""/>
    <tripinfo id="7" depart="6.00" departLane="E0_0" departPos="5.10" departSpeed="3.06" departDelay="1.00" arrival="181.00" arrivalLane="E3_0" arrivalPos="90.46" arrivalSpeed="26.38" duration="175.00" routeLength="1317.38" waitingTime="54.00" waitingCount="2" stopTime="0.00" timeLoss="83.08" rerouteNo="0" devices="tripinfo_7" vType="DEFAULT_VEHTYPE" speedFactor="0.94" vaporized=""/>
    <tripinfo id="37" depart="73.00" departLane="E0_0" departPos="5.10" departSpeed="7.45" departDelay="33.00" arrival="186.00" arrivalLane="E3_0" arrivalPos="90.46" arrivalSpeed="26.86" duration="113.00" routeLength="1314.99" waitingTime="0.00" waitingCount="0" stopTime="0.00" timeLoss="22.09" rerouteNo="0" devices="tripinfo_37" vType="DEFAULT_VEHTYPE" speedFactor="0.90" vaporized=""/>
    <tripinfo id="40" depart="79.00" departLane="E0_0" departPos="5.10" departSpeed="1.55" departDelay="37.00" arrival="188.00" arrivalLane="E3_0" arrivalPos="90.46" arrivalSpeed="28.58" duration="109.00" routeLength="1314.99" waitingTime="0.00" waitingCount="0" stopTime="0.00" timeLoss="31.31" rerouteNo="0" devices="tripinfo_40" vType="DEFAULT_VEHTYPE" speedFactor="1.06" vaporized=""/>
    <tripinfo id="41" depart="82.00" departLane="E0_0" departPos="5.10" departSpeed="0.23" departDelay="37.00" arrival="189.00" arrivalLane="E3_0" arrivalPos="90.46" arrivalSpeed="28.54" duration="107.00" routeLength="1314.99" waitingTime="0.00" waitingCount="0" stopTime="0.00" timeLoss="36.57" rerouteNo="0" devices="tripinfo_41" vType="DEFAULT_VEHTYPE" speedFactor="1.17" vaporized=""/>
    <tripinfo id="47" depart="98.00" departLane="E0_0" departPos="5.10" departSpeed="2.34" departDelay="49.00" arrival="197.00" arrivalLane="E3_0" arrivalPos="90.46" arrivalSpeed="30.66" duration="99.00" routeLength="1314.99" waitingTime="0.00" waitingCount="0" stopTime="0.00" timeLoss="19.31" rerouteNo="0" devices="tripinfo_47" vType="DEFAULT_VEHTYPE" speedFactor="1.02" vaporized=""/>
    <tripinfo id="48" depart="101.00" departLane="E0_0" departPos="5.10" departSpeed="3.20" departDelay="52.00" arrival="202.00" arrivalLane="E3_0" arrivalPos="90.46" arrivalSpeed="29.01" duration="101.00" routeLength="1314.99" waitingTime="0.00" waitingCount="0" stopTime="0.00" timeLoss="18.88" rerouteNo="0" devices="tripinfo_48" vType="DEFAULT_VEHTYPE" speedFactor="1.00" vaporized=""/>
    <tripinfo id="49" depart="104.00" departLane="E0_0" departPos="5.10" departSpeed="6.44" departDelay="52.00" arrival="204.00" arrivalLane="E3_0" arrivalPos="90.46" arrivalSpeed="32.51" duration="100.00" routeLength="1314.99" waitingTime="0.00" waitingCount="0" stopTime="0.00" timeLoss="26.33" rerouteNo="0" devices="tripinfo_49" vType="DEFAULT_VEHTYPE" speedFactor="1.12" vaporized=""/>
    <tripinfo id="52" depart="110.00" departLane="E0_0" departPos="5.10" departSpeed="7.95" departDelay="55.00" arrival="215.00" arrivalLane="E3_0" arrivalPos="90.46" arrivalSpeed="28.42" duration="105.00" routeLength="1314.99" waitingTime="0.00" waitingCount="0" stopTime="0.00" timeLoss="19.43" rerouteNo="0" devices="tripinfo_52" vType="DEFAULT_VEHTYPE" speedFactor="0.96" vaporized=""/>
    <tripinfo id="53" depart="112.00" departLane="E0_0" departPos="5.10" departSpeed="4.72" departDelay="57.00" arrival="222.00" arrivalLane="E3_0" arrivalPos="90.46" arrivalSpeed="26.54" duration="110.00" routeLength="1314.99" waitingTime="0.00" waitingCount="0" stopTime="0.00" timeLoss="19.23" rerouteNo="0" devices="tripinfo_53" vType="DEFAULT_VEHTYPE" speedFactor="0.91" vaporized=""/>
    <tripinfo id="54" depart="114.00" departLane="E0_0" departPos="5.10" departSpeed="5.07" departDelay="58.00" arrival="223.00" arrivalLane="E3_0" arrivalPos="90.46" arrivalSpeed="28.37" duration="109.00" routeLength="1314.99" waitingTime="0.00" waitingCount="0" stopTime="0.00" timeLoss="22.70" rerouteNo="0" devices="tripinfo_54" vType="DEFAULT_VEHTYPE" speedFactor="0.95" vaporized=""/>
    <tripinfo id="55" depart="116.00" departLane="E0_0" departPos="5.10" departSpeed="1.19" departDelay="59.00" arrival="225.00" arrivalLane="E3_0" arrivalPos="90.46" arrivalSpeed="30.21" duration="109.00" routeLength="1314.99" waitingTime="0.00" waitingCount="0" stopTime="0.00" timeLoss="28.23" rerouteNo="0" devices="tripinfo_55" vType="DEFAULT_VEHTYPE" speedFactor="1.02" vaporized=""/>
    <tripinfo id="57" depart="123.00" departLane="E0_0" departPos="5.10" departSpeed="4.04" departDelay="65.00" arrival="226.00" arrivalLane="E3_0" arrivalPos="90.46" arrivalSpeed="30.72" duration="103.00" routeLength="1314.99" waitingTime="0.00" waitingCount="0" stopTime="0.00" timeLoss="25.26" rerouteNo="0" devices="tripinfo_57" vType="DEFAULT_VEHTYPE" speedFactor="1.06" vaporized=""/>
    <tripinfo id="58" depart="125.00" departLane="E0_0" departPos="5.10" departSpeed="2.05" departDelay="65.00" arrival="228.00" arrivalLane="E3_0" arrivalPos="90.46" arrivalSpeed="31.33" duration="103.00" routeLength="1314.99" waitingTime="0.00" waitingCount="0" stopTime="0.00" timeLoss="28.82" rerouteNo="0" devices="tripinfo_58" vType="DEFAULT_VEHTYPE" speedFactor="1.12" vaporized=""/>
    <tripinfo id="59" depart="128.00" departLane="E0_0" departPos="5.10" departSpeed="4.77" departDelay="68.00" arrival="229.00" arrivalLane="E3_0" arrivalPos="90.46" arrivalSpeed="30.17" duration="101.00" routeLength="1314.99" waitingTime="0.00" waitingCount="0" stopTime="0.00" timeLoss="21.10" rerouteNo="0" devices="tripinfo_59" vType="DEFAULT_VEHTYPE" speedFactor="1.03" vaporized=""/>
    <tripinfo id="60" depart="130.00" departLane="E0_0" departPos="5.10" departSpeed="3.53" departDelay="67.00" arrival="239.00" arrivalLane="E3_0" arrivalPos="90.46" arrivalSpeed="27.40" duration="109.00" routeLength="1314.99" waitingTime="0.00" waitingCount="0" stopTime="0.00" timeLoss="18.94" rerouteNo="0" devices="tripinfo_60" vType="DEFAULT_VEHTYPE" speedFactor="0.92" vaporized=""/>
    <tripinfo id="61" depart="133.00" departLane="E0_0" departPos="5.10" departSpeed="5.82" departDelay="69.00" arrival="240.00" arrivalLane="E3_0" arrivalPos="90.46" arrivalSpeed="28.27" duration="107.00" routeLength="1314.99" waitingTime="0.00" waitingCount="0" stopTime="0.00" timeLoss="31.20" rerouteNo="0" devices="tripinfo_61" vType="DEFAULT_VEHTYPE" speedFactor="1.09" vaporized=""/>
    <tripinfo id="63" depart="137.00" departLane="E0_0" departPos="5.10" departSpeed="4.17" departDelay="71.00" arrival="241.00" arrivalLane="E3_0" arrivalPos="90.46" arrivalSpeed="29.91" duration="104.00" routeLength="1314.99" waitingTime="0.00" waitingCount="0" stopTime="0.00" timeLoss="23.16" rerouteNo="0" devices="tripinfo_63" vType="DEFAULT_VEHTYPE" speedFactor="1.02" vaporized=""/>
    <tripinfo id="64" depart="139.00" departLane="E0_0" departPos="5.10" departSpeed="2.98" departDelay="72.00" arrival="243.00" arrivalLane="E3_0" arrivalPos="90.46" arrivalSpeed="29.86" duration="104.00" routeLength="1314.99" waitingTime="0.00" waitingCount="0" stopTime="0.00" timeLoss="27.44" rerouteNo="0" devices="tripinfo_64" vType="DEFAULT_VEHTYPE" speedFactor="1.08" vaporized=""/>
    <tripinfo id="66" depart="144.00" departLane="E0_0" departPos="5.10" departSpeed="5.10" departDelay="74.00" arrival="247.00" arrivalLane="E3_0" arrivalPos="90.46" arrivalSpeed="29.31" duration="103.00" routeLength="1314.99" waitingTime="0.00" waitingCount="0" stopTime="0.00" timeLoss="18.69" rerouteNo="0" devices="tripinfo_66" vType="DEFAULT_VEHTYPE" speedFactor="0.98" vaporized=""/>
    <tripinfo id="67" depart="146.00" departLane="E0_0" departPos="5.10" departSpeed="4.73" departDelay="75.00" arrival="248.00" arrivalLane="E3_0" arrivalPos="90.46" arrivalSpeed="29.56" duration="102.00" routeLength="1314.99" waitingTime="0.00" waitingCount="0" stopTime="0.00" timeLoss="20.46" rerouteNo="0" devices="tripinfo_67" vType="DEFAULT_VEHTYPE" speedFactor="1.01" vaporized=""/>
    <tripinfo id="9" depart="11.00" departLane="E0_0" departPos="5.10" departSpeed="6.19" departDelay="5.00" arrival="256.00" arrivalLane="E3_0" arrivalPos="90.46" arrivalSpeed="25.73" duration="245.00" routeLength="1317.38" waitingTime="122.00" waitingCount="3" stopTime="0.00" timeLoss="166.19" rerouteNo="0" devices="tripinfo_9" vType="DEFAULT_VEHTYPE" speedFactor="1.09" vaporized=""/>
    <tripinfo id="13" depart="19.00" departLane="E0_0" departPos="5.10" departSpeed="6.88" departDelay="10.00" arrival="258.00" arrivalLane="E3_0" arrivalPos="90.46" arrivalSpeed="26.52" duration="239.00" routeLength="1317.38" waitingTime="111.00" waitingCount="3" stopTime="0.00" timeLoss="146.28" rerouteNo="0" devices="tripinfo_13" vType="DEFAULT_VEHTYPE" speedFactor="0.93" vaporized=""/>
    <tripinfo id="15" depart="23.00" departLane="E0_0" departPos="5.10" departSpeed="8.25" departDelay="11.00" arrival="260.00" arrivalLane="E3_0" arrivalPos="90.46" arrivalSpeed="25.49" duration="237.00" routeLength="1317.38" waitingTime="107.00" waitingCount="3" stopTime="0.00" timeLoss="145.16" rerouteNo="0" devices="tripinfo_15" vType="DEFAULT_VEHTYPE" speedFactor="0.94" vaporized=""/>
    <tripinfo id="16" depart="25.00" departLane="E0_0" departPos="5.10" departSpeed="8.27" departDelay="13.00" arrival="261.00" arrivalLane="E3_0" arrivalPos="90.46" arrivalSpeed="23.93" duration="236.00" routeLength="1317.38" waitingTime="104.00" waitingCount="3" stopTime="0.00" timeLoss="157.09" rerouteNo="0" devices="tripinfo_16" vType="DEFAULT_VEHTYPE" speedFactor="1.08" vaporized=""/>
    <tripinfo id="69" depart="151.00" departLane="E0_0" departPos="5.10" departSpeed="3.84" departDelay="75.00" arrival="268.00" arrivalLane="E3_0" arrivalPos="90.46" arrivalSpeed="24.13" duration="117.00" routeLength="1314.99" waitingTime="0.00" waitingCount="0" stopTime="0.00" timeLoss="18.50" rerouteNo="0" devices="tripinfo_69" vType="DEFAULT_VEHTYPE" speedFactor="0.83" vaporized=""/>
    <tripinfo id="70" depart="153.00" departLane="E0_0" departPos="5.10" departSpeed="0.62" departDelay="77.00" arrival="270.00" arrivalLane="E3_0" arrivalPos="90.46" arrivalSpeed="28.80" duration="117.00" routeLength="1314.99" waitingTime="0.00" waitingCount="0" stopTime="0.00" timeLoss="38.37" rerouteNo="0" devices="tripinfo_70" vType="DEFAULT_VEHTYPE" speedFactor="1.05" vaporized=""/>
    <tripinfo id="71" depart="157.00" departLane="E0_0" departPos="5.10" departSpeed="4.54" departDelay="80.00" arrival="271.00" arrivalLane="E3_0" arrivalPos="90.46" arrivalSpeed="29.38" duration="114.00" routeLength="1314.99" waitingTime="0.00" waitingCount="0" stopTime="0.00" timeLoss="36.16" rerouteNo="0" devices="tripinfo_71" vType="DEFAULT_VEHTYPE" speedFactor="1.06" vaporized=""/>
    <tripinfo id="72" depart="159.00" departLane="E0_0" departPos="5.10" departSpeed="3.56" departDelay="82.00" arrival="273.00" arrivalLane="E3_0" arrivalPos="90.46" arrivalSpeed="25.23" duration="114.00" routeLength="1314.99" waitingTime="0.00" waitingCount="0" stopTime="0.00" timeLoss="18.98" rerouteNo="0" devices="tripinfo_72" vType="DEFAULT_VEHTYPE" speedFactor="0.86" vaporized=""/>
    <tripinfo id="73" depart="162.00" departLane="E0_0" departPos="5.10" departSpeed="5.99" departDelay="83.00" arrival="275.00" arrivalLane="E3_0" arrivalPos="90.46" arrivalSpeed="26.16" duration="113.00" routeLength="1314.99" waitingTime="0.00" waitingCount="0" stopTime="0.00" timeLoss="22.30" rerouteNo="0" devices="tripinfo_73" vType="DEFAULT_VEHTYPE" speedFactor="0.91" vaporized=""/>
    <tripinfo id="74" depart="164.00" departLane="E0_0" departPos="5.10" departSpeed="5.11" departDelay="85.00" arrival="276.00" arrivalLane="E3_0" arrivalPos="90.46" arrivalSpeed="28.16" duration="112.00" routeLength="1314.99" waitingTime="0.00" waitingCount="0" stopTime="0.00" timeLoss="40.20" rerouteNo="0" devices="tripinfo_74" vType="DEFAULT_VEHTYPE" speedFactor="1.14" vaporized=""/>
    <tripinfo id="77" depart="170.00" departLane="E0_0" departPos="5.10" departSpeed="5.83" departDelay="87.00" arrival="278.00" arrivalLane="E3_0" arrivalPos="90.46" arrivalSpeed="28.80" duration="108.00" routeLength="1314.99" waitingTime="0.00" waitingCount="0" stopTime="0.00" timeLoss="22.73" rerouteNo="0" devices="tripinfo_77" vType="DEFAULT_VEHTYPE" speedFactor="0.97" vaporized=""/>
    <tripinfo id="78" depart="172.00" departLane="E0_0" departPos="5.10" departSpeed="5.32" departDelay="89.00" arrival="279.00" arrivalLane="E3_0" arrivalPos="90.46" arrivalSpeed="27.98" duration="107.00" routeLength="1314.99" waitingTime="0.00" waitingCount="0" stopTime="0.00" timeLoss="20.37" rerouteNo="0" devices="tripinfo_78" vType="DEFAULT_VEHTYPE" speedFactor="0.95" vaporized=""/>
    <tripinfo id="79" depart="174.00" departLane="E0_0" departPos="5.10" departSpeed="6.05" departDelay="88.00" arrival="280.00" arrivalLane="E3_0" arrivalPos="90.46" arrivalSpeed="30.20" duration="106.00" routeLength="1314.99" waitingTime="0.00" waitingCount="0" stopTime="0.00" timeLoss="29.60" rerouteNo="0" devices="tripinfo_79" vType="DEFAULT_VEHTYPE" speedFactor="1.07" vaporized=""/>
    <tripinfo id="81" depart="178.00" departLane="E0_0" departPos="5.10" departSpeed="6.57" departDelay="88.00" arrival="282.00" arrivalLane="E3_0" arrivalPos="90.46" arrivalSpeed="29.75" duration="104.00" routeLength="1314.99" waitingTime="0.00" waitingCount="0" stopTime="0.00" timeLoss="24.25" rerouteNo="0" devices="tripinfo_81" vType="DEFAULT_VEHTYPE" speedFactor="1.03" vaporized=""/>
    <tripinfo id="82" depart="180.00" departLane="E0_0" departPos="5.10" departSpeed="8.16" departDelay="89.00" arrival="286.00" arrivalLane="E3_0" arrivalPos="90.46" arrivalSpeed="28.68" duration="106.00" routeLength="1314.99" waitingTime="0.00" waitingCount="0" stopTime="0.00" timeLoss="21.40" rerouteNo="0" devices="tripinfo_82" vType="DEFAULT_VEHTYPE" speedFactor="0.98" vaporized=""/>
    <tripinfo id="84" depart="184.00" departLane="E0_0" departPos="5.10" departSpeed="2.38" departDelay="90.00" arrival="287.00" arrivalLane="E3_0" arrivalPos="90.46" arrivalSpeed="31.50" duration="103.00" routeLength="1314.99" waitingTime="0.00" waitingCount="0" stopTime="0.00" timeLoss="37.04" rerouteNo="0" devices="tripinfo_84" vType="DEFAULT_VEHTYPE" speedFactor="1.25" vaporized=""/>
    <tripinfo id="17" depart="27.00" departLane="E0_0" departPos="5.10" departSpeed="8.88" departDelay="13.00" arrival="296.00" arrivalLane="E3_0" arrivalPos="90.46" arrivalSpeed="23.57" duration="269.00" routeLength="1317.38" waitingTime="130.00" waitingCount="4" stopTime="0.00" timeLoss="184.27" rerouteNo="0" devices="tripinfo_17" vType="DEFAULT_VEHTYPE" speedFactor="1.01" vaporized=""/>
    <tripinfo id="85" depart="187.00" departLane="E0_0" departPos="5.10" departSpeed="3.16" departDelay="92.00" arrival="304.00" arrivalLane="E3_0" arrivalPos="90.46" arrivalSpeed="25.42" duration="117.00" routeLength="1314.99" waitingTime="0.00" waitingCount="0" stopTime="0.00" timeLoss="21.99" rerouteNo="0" devices="tripinfo_85" vType="DEFAULT_VEHTYPE" speedFactor="0.87" vaporized=""/>
    <tripinfo id="87" depart="192.00" departLane="E0_0" departPos="5.10" departSpeed="5.05" departDelay="96.00" arrival="305.00" arrivalLane="E3_0" arrivalPos="90.46" arrivalSpeed="27.63" duration="113.00" routeLength="1314.99" waitingTime="0.00" waitingCount="0" stopTime="0.00" timeLoss="38.19" rerouteNo="0" devices="tripinfo_87" vType="DEFAULT_VEHTYPE" speedFactor="1.10" vaporized=""/>
    <tripinfo id="88" depart="194.00" departLane="E0_0" departPos="5.10" departSpeed="4.74" departDelay="95.00" arrival="307.00" arrivalLane="E3_0" arrivalPos="90.46" arrivalSpeed="27.96" duration="113.00" routeLength="1314.99" waitingTime="0.00" waitingCount="0" stopTime="0.00" timeLoss="27.83" rerouteNo="0" devices="tripinfo_88" vType="DEFAULT_VEHTYPE" speedFactor="0.97" vaporized=""/>
    <tripinfo id="90" depart="198.00" departLane="E0_0" departPos="5.10" departSpeed="2.15" departDelay="98.00" arrival="308.00" arrivalLane="E3_0" arrivalPos="90.46" arrivalSpeed="28.55" duration="110.00" routeLength="1314.99" waitingTime="0.00" waitingCount="0" stopTime="0.00" timeLoss="37.16" rerouteNo="0" devices="tripinfo_90" vType="DEFAULT_VEHTYPE" speedFactor="1.13" vaporized=""/>
    <tripinfo id="91" depart="201.00" departLane="E0_0" departPos="5.10" departSpeed="3.99" departDelay="101.00" arrival="310.00" arrivalLane="E3_0" arrivalPos="90.46" arrivalSpeed="29.53" duration="109.00" routeLength="1314.99" waitingTime="0.00" waitingCount="0" stopTime="0.00" timeLoss="25.86" rerouteNo="0" devices="tripinfo_91" vType="DEFAULT_VEHTYPE" speedFactor="0.99" vaporized=""/>
    <tripinfo id="95" depart="210.00" departLane="E0_0" departPos="5.10" departSpeed="3.86" departDelay="105.00" arrival="312.00" arrivalLane="E3_0" arrivalPos="90.46" arrivalSpeed="30.27" duration="102.00" routeLength="1314.99" waitingTime="0.00" waitingCount="0" stopTime="0.00" timeLoss="21.88" rerouteNo="0" devices="tripinfo_95" vType="DEFAULT_VEHTYPE" speedFactor="1.02" vaporized=""/>
    <tripinfo id="97" depart="215.00" departLane="E0_0" departPos="5.10" departSpeed="0.37" departDelay="104.00" arrival="315.00" arrivalLane="E3_0" arrivalPos="90.46" arrivalSpeed="30.17" duration="100.00" routeLength="1314.99" waitingTime="0.00" waitingCount="0" stopTime="0.00" timeLoss="20.42" rerouteNo="0" devices="tripinfo_97" vType="DEFAULT_VEHTYPE" speedFactor="1.03" vaporized=""/>
    <tripinfo id="98" depart="218.00" departLane="E0_0" departPos="5.10" departSpeed="0.94" departDelay="107.00" arrival="321.00" arrivalLane="E3_0" arrivalPos="90.46" arrivalSpeed="29.10" duration="103.00" routeLength="1314.99" waitingTime="0.00" waitingCount="0" stopTime="0.00" timeLoss="21.18" rerouteNo="0" devices="tripinfo_98" vType="DEFAULT_VEHTYPE" speedFactor="1.00" vaporized=""/>
    <tripinfo id="99" depart="222.00" departLane="E0_0" departPos="5.10" departSpeed="6.19" departDelay="110.00" arrival="323.00" arrivalLane="E3_0" arrivalPos="90.46" arrivalSpeed="32.51" duration="101.00" routeLength="1314.99" waitingTime="0.00" waitingCount="0" stopTime="0.00" timeLoss="26.74" rerouteNo="0" devices="tripinfo_99" vType="DEFAULT_VEHTYPE" speedFactor="1.12" vaporized=""/>
    <tripinfo id="101" depart="226.00" departLane="E0_0" departPos="5.10" departSpeed="2.15" departDelay="108.00" arrival="326.00" arrivalLane="E3_0" arrivalPos="90.46" arrivalSpeed="30.63" duration="100.00" routeLength="1314.99" waitingTime="0.00" waitingCount="0" stopTime="0.00" timeLoss="20.15" rerouteNo="0" devices="tripinfo_101" vType="DEFAULT_VEHTYPE" speedFactor="1.03" vaporized=""/>