<?xml version="1.0" encoding="UTF-8"?>

<!-- generated on 2023-04-29 14:15:30 by Eclipse SUMO sumo Version 1.16.0
<configuration xmlns:xsi="http://www.w3.org/2001/XMLSchema-instance" xsi:noNamespaceSchemaLocation="http://sumo.dlr.de/xsd/sumoConfiguration.xsd">

    <input>
        <net-file value="005/../configurations/maps/4corners_neighborhoods.net.xml"/>
        <route-files value="005/Trips_File_005.rou.xml"/>
        <additional-files value="005/../edgedata.add.xml"/>
    </input>

    <output>
        <output-prefix value="005/"/>
        <summary-output value="005/../summary_005.xml"/>
        <tripinfo-output value="005/../tripinfo_005.xml"/>
    </output>

    <time>
        <begin value="0"/>
    </time>

    <processing>
        <route-steps value="200"/>
        <no-internal-links value="False"/>
        <time-to-teleport value="300"/>
        <time-to-teleport.highways value="0"/>
        <eager-insert value="False"/>
    </processing>

    <report>
        <verbose value="true"/>
        <no-warnings value="False"/>
        <log value="005/../iteration_005.sumo.log"/>
        <no-step-log value="true"/>
    </report>

    <mesoscopic>
        <mesosim value="true"/>
        <meso-recheck value="0"/>
    </mesoscopic>

    <random_number>
        <random value="False"/>
    </random_number>

</configuration>
-->

<tripinfos xmlns:xsi="http://www.w3.org/2001/XMLSchema-instance" xsi:noNamespaceSchemaLocation="http://sumo.dlr.de/xsd/tripinfo_file.xsd">
    <tripinfo id="10" depart="12.00" departLane="" departPos="0.00" departSpeed="26.05" departDelay="0.00" arrival="41.00" arrivalLane="" arrivalPos="71.22" arrivalSpeed="13.03" duration="29.00" routeLength="612.32" waitingTime="0.16" waitingCount="0" stopTime="0.00" timeLoss="2.36" rerouteNo="0" devices="tripinfo_10" vType="DEFAULT_VEHTYPE" speedFactor="0.94" vaporized=""/>
    <tripinfo id="2" depart="3.00" departLane="" departPos="0.00" departSpeed="29.45" departDelay="0.00" arrival="45.00" arrivalLane="" arrivalPos="257.55" arrivalSpeed="29.45" duration="42.00" routeLength="1228.81" waitingTime="0.00" waitingCount="0" stopTime="0.00" timeLoss="0.00" rerouteNo="0" devices="tripinfo_2" vType="DEFAULT_VEHTYPE" speedFactor="1.06" vaporized=""/>
    <tripinfo id="32" depart="26.00" departLane="" departPos="0.00" departSpeed="16.37" departDelay="0.00" arrival="49.00" arrivalLane="" arrivalPos="38.78" arrivalSpeed="16.37" duration="23.00" routeLength="594.71" waitingTime="0.47" waitingCount="0" stopTime="0.00" timeLoss="0.58" rerouteNo="0" devices="tripinfo_32" vType="DEFAULT_VEHTYPE" speedFactor="1.18" vaporized=""/>
    <tripinfo id="7" depart="9.00" departLane="" departPos="0.00" departSpeed="11.54" departDelay="0.00" arrival="53.00" arrivalLane="" arrivalPos="100.00" arrivalSpeed="23.08" duration="44.00" routeLength="958.05" waitingTime="0.00" waitingCount="0" stopTime="0.00" timeLoss="0.00" rerouteNo="0" devices="tripinfo_7" vType="DEFAULT_VEHTYPE" speedFactor="0.83" vaporized=""/>
    <tripinfo id="16" depart="16.00" departLane="" departPos="0.00" departSpeed="27.54" departDelay="0.00" arrival="54.00" arrivalLane="" arrivalPos="100.00" arrivalSpeed="23.08" duration="38.00" routeLength="952.53" waitingTime="0.00" waitingCount="0" stopTime="0.00" timeLoss="2.68" rerouteNo="0" devices="tripinfo_16" vType="DEFAULT_VEHTYPE" speedFactor="0.99" vaporized=""/>
    <tripinfo id="24" depart="19.00" departLane="" departPos="0.00" departSpeed="13.54" departDelay="0.00" arrival="54.00" arrivalLane="" arrivalPos="257.55" arrivalSpeed="27.08" duration="35.00" routeLength="854.05" waitingTime="0.00" waitingCount="0" stopTime="0.00" timeLoss="0.00" rerouteNo="0" devices="tripinfo_24" vType="DEFAULT_VEHTYPE" speedFactor="0.97" vaporized=""/>
    <tripinfo id="6" depart="9.00" departLane="" departPos="0.00" departSpeed="28.62" departDelay="0.00" arrival="55.00" arrivalLane="" arrivalPos="257.55" arrivalSpeed="27.08" duration="46.00" routeLength="1228.81" waitingTime="1.17" waitingCount="0" stopTime="0.00" timeLoss="2.63" rerouteNo="0" devices="tripinfo_6" vType="DEFAULT_VEHTYPE" speedFactor="1.03" vaporized=""/>
    <tripinfo id="39" depart="33.00" departLane="" departPos="0.00" departSpeed="16.38" departDelay="0.00" arrival="55.00" arrivalLane="" arrivalPos="38.78" arrivalSpeed="16.38" duration="22.00" routeLength="594.71" waitingTime="0.00" waitingCount="0" stopTime="0.00" timeLoss="0.00" rerouteNo="0" devices="tripinfo_39" vType="DEFAULT_VEHTYPE" speedFactor="1.18" vaporized=""/>
    <tripinfo id="33" depart="27.00" departLane="" departPos="0.00" departSpeed="32.07" departDelay="0.00" arrival="56.00" arrivalLane="" arrivalPos="71.22" arrivalSpeed="16.03" duration="29.00" routeLength="848.93" waitingTime="0.00" waitingCount="0" stopTime="0.00" timeLoss="0.00" rerouteNo="0" devices="tripinfo_33" vType="DEFAULT_VEHTYPE" speedFactor="1.15" vaporized=""/>
    <tripinfo id="28" depart="23.00" departLane="" departPos="0.00" departSpeed="25.47" departDelay="0.00" arrival="61.00" arrivalLane="" arrivalPos="100.00" arrivalSpeed="25.48" duration="38.00" routeLength="952.53" waitingTime="0.00" waitingCount="0" stopTime="0.00" timeLoss="0.00" rerouteNo="0" devices="tripinfo_28" vType="DEFAULT_VEHTYPE" speedFactor="0.92" vaporized=""/>
    <tripinfo id="20" depart="17.00" departLane="" departPos="0.00" departSpeed="26.01" departDelay="0.00" arrival="65.00" arrivalLane="" arrivalPos="257.55" arrivalSpeed="26.01" duration="48.00" routeLength="1228.81" waitingTime="0.00" waitingCount="0" stopTime="0.00" timeLoss="0.00" rerouteNo="0" devices="tripinfo_20" vType="DEFAULT_VEHTYPE" speedFactor="0.94" vaporized=""/>
    <tripinfo id="30" depart="25.00" departLane="" departPos="0.00" departSpeed="31.44" departDelay="0.00" arrival="65.00" arrivalLane="" arrivalPos="294.40" arrivalSpeed="31.44" duration="40.00" routeLength="1225.09" waitingTime="0.53" waitingCount="0" stopTime="0.00" timeLoss="0.54" rerouteNo="0" devices="tripinfo_30" vType="DEFAULT_VEHTYPE" speedFactor="1.13" vaporized=""/>
    <tripinfo id="21" depart="18.00" departLane="" departPos="0.00" departSpeed="32.17" departDelay="0.00" arrival="66.00" arrivalLane="" arrivalPos="257.55" arrivalSpeed="26.01" duration="48.00" routeLength="1324.09" waitingTime="0.36" waitingCount="0" stopTime="0.00" timeLoss="6.49" rerouteNo="0" devices="tripinfo_21" vType="DEFAULT_VEHTYPE" speedFactor="1.16" vaporized=""/>
    <tripinfo id="13" depart="13.00" departLane="" departPos="0.00" departSpeed="28.51" departDelay="0.00" arrival="68.00" arrivalLane="" arrivalPos="294.40" arrivalSpeed="28.51" duration="55.00" routeLength="1556.98" waitingTime="0.00" waitingCount="0" stopTime="0.00" timeLoss="0.10" rerouteNo="0" devices="tripinfo_13" vType="DEFAULT_VEHTYPE" speedFactor="1.03" vaporized=""/>
    <tripinfo id="23" depart="18.00" departLane="" departPos="0.00" departSpeed="19.36" departDelay="0.00" arrival="68.00" arrivalLane="" arrivalPos="38.78" arrivalSpeed="14.03" duration="50.00" routeLength="1301.36" waitingTime="0.35" waitingCount="0" stopTime="0.00" timeLoss="1.99" rerouteNo="0" devices="tripinfo_23" vType="DEFAULT_VEHTYPE" speedFactor="1.01" vaporized=""/>
    <tripinfo id="38" depart="33.00" departLane="" departPos="0.00" departSpeed="27.04" departDelay="0.00" arrival="68.00" arrivalLane="" arrivalPos="71.22" arrivalSpeed="13.52" duration="35.00" routeLength="848.93" waitingTime="0.00" waitingCount="0" stopTime="0.00" timeLoss="0.00" rerouteNo="0" devices="tripinfo_38" vType="DEFAULT_VEHTYPE" speedFactor="0.97" vaporized=""/>
    <tripinfo id="5" depart="7.00" departLane="" departPos="0.00" departSpeed="24.06" departDelay="0.00" arrival="71.00" arrivalLane="" arrivalPos="143.59" arrivalSpeed="24.06" duration="64.00" routeLength="1532.30" waitingTime="0.00" waitingCount="0" stopTime="0.00" timeLoss="0.00" rerouteNo="0" devices="tripinfo_5" vType="DEFAULT_VEHTYPE" speedFactor="1.08" vaporized=""/>
    <tripinfo id="14" depart="13.00" departLane="" departPos="0.00" departSpeed="23.26" departDelay="0.00" arrival="72.00" arrivalLane="" arrivalPos="38.78" arrivalSpeed="14.54" duration="59.00" routeLength="1418.15" waitingTime="0.00" waitingCount="0" stopTime="0.00" timeLoss="0.00" rerouteNo="0" devices="tripinfo_14" vType="DEFAULT_VEHTYPE" speedFactor="1.05" vaporized=""/>
    <tripinfo id="22" depart="18.00" departLane="" departPos="0.00" departSpeed="28.28" departDelay="0.00" arrival="74.00" arrivalLane="" arrivalPos="294.40" arrivalSpeed="28.28" duration="56.00" routeLength="1556.98" waitingTime="0.00" waitingCount="0" stopTime="0.00" timeLoss="0.00" rerouteNo="0" devices="tripinfo_22" vType="DEFAULT_VEHTYPE" speedFactor="1.02" vaporized=""/>
    <tripinfo id="43" depart="39.00" departLane="" departPos="0.00" departSpeed="13.29" departDelay="0.00" arrival="74.00" arrivalLane="" arrivalPos="257.55" arrivalSpeed="26.59" duration="35.00" routeLength="854.05" waitingTime="0.00" waitingCount="0" stopTime="0.00" timeLoss="0.00" rerouteNo="0" devices="tripinfo_43" vType="DEFAULT_VEHTYPE" speedFactor="0.96" vaporized=""/>
    <tripinfo id="36" depart="30.00" departLane="" departPos="0.00" departSpeed="27.63" departDelay="0.00" arrival="76.00" arrivalLane="" arrivalPos="294.40" arrivalSpeed="27.64" duration="46.00" routeLength="1225.09" waitingTime="0.58" waitingCount="0" stopTime="0.00" timeLoss="0.76" rerouteNo="0" devices="tripinfo_36" vType="DEFAULT_VEHTYPE" speedFactor="0.99" vaporized=""/>
    <tripinfo id="3" depart="4.00" departLane="" departPos="0.00" departSpeed="26.06" departDelay="0.00" arrival="80.00" arrivalLane="" arrivalPos="325.99" arrivalSpeed="20.85" duration="76.00" routeLength="1674.93" waitingTime="0.00" waitingCount="0" stopTime="0.00" timeLoss="0.00" rerouteNo="0" devices="tripinfo_3" vType="DEFAULT_VEHTYPE" speedFactor="0.94" vaporized=""/>
    <tripinfo id="4" depart="6.00" departLane="" departPos="0.00" departSpeed="28.07" departDelay="0.00" arrival="81.00" arrivalLane="" arrivalPos="325.99" arrivalSpeed="20.85" duration="75.00" routeLength="1770.21" waitingTime="0.00" waitingCount="0" stopTime="0.00" timeLoss="1.46" rerouteNo="0" devices="tripinfo_4" vType="DEFAULT_VEHTYPE" speedFactor="1.01" vaporized=""/>
    <tripinfo id="9" depart="12.00" departLane="" departPos="0.00" departSpeed="24.61" departDelay="0.00" arrival="81.00" arrivalLane="" arrivalPos="143.59" arrivalSpeed="19.69" duration="69.00" routeLength="1459.06" waitingTime="0.00" waitingCount="0" stopTime="0.00" timeLoss="0.00" rerouteNo="0" devices="tripinfo_9" vType="DEFAULT_VEHTYPE" speedFactor="0.89" vaporized=""/>
    <tripinfo id="53" depart="56.00" departLane="" departPos="0.00" departSpeed="16.23" departDelay="0.00" arrival="81.00" arrivalLane="" arrivalPos="71.22" arrivalSpeed="16.23" duration="25.00" routeLength="617.84" waitingTime="0.00" waitingCount="0" stopTime="0.00" timeLoss="1.70" rerouteNo="0" devices="tripinfo_53" vType="DEFAULT_VEHTYPE" speedFactor="1.17" vaporized=""/>
    <tripinfo id="47" depart="48.00" departLane="" departPos="0.00" departSpeed="30.22" departDelay="0.00" arrival="82.00" arrivalLane="" arrivalPos="38.78" arrivalSpeed="15.11" duration="34.00" routeLength="969.47" waitingTime="0.00" waitingCount="0" stopTime="0.00" timeLoss="0.00" rerouteNo="0" devices="tripinfo_47" vType="DEFAULT_VEHTYPE" speedFactor="1.09" vaporized=""/>
    <tripinfo id="15" depart="13.00" departLane="" departPos="0.00" departSpeed="18.80" departDelay="0.00" arrival="83.00" arrivalLane="" arrivalPos="71.22" arrivalSpeed="15.60" duration="70.00" routeLength="1426.73" waitingTime="0.95" waitingCount="0" stopTime="0.00" timeLoss="4.41" rerouteNo="0" devices="tripinfo_15" vType="DEFAULT_VEHTYPE" speedFactor="1.12" vaporized=""/>
    <tripinfo id="40" depart="33.00" departLane="" departPos="0.00" departSpeed="11.83" departDelay="0.00" arrival="83.00" arrivalLane="" arrivalPos="143.59" arrivalSpeed="19.69" duration="50.00" routeLength="1084.30" waitingTime="0.00" waitingCount="0" stopTime="0.00" timeLoss="3.92" rerouteNo="0" devices="tripinfo_40" vType="DEFAULT_VEHTYPE" speedFactor="1.10" vaporized=""/>
    <tripinfo id="19" depart="17.00" departLane="" departPos="0.00" departSpeed="15.46" departDelay="0.00" arrival="89.00" arrivalLane="" arrivalPos="71.22" arrivalSpeed="13.08" duration="72.00" routeLength="1246.20" waitingTime="0.55" waitingCount="0" stopTime="0.00" timeLoss="3.14" rerouteNo="0" devices="tripinfo_19" vType="DEFAULT_VEHTYPE" speedFactor="0.94" vaporized=""/>
    <tripinfo id="49" depart="49.00" departLane="" departPos="0.00" departSpeed="12.51" departDelay="0.00" arrival="90.00" arrivalLane="" arrivalPos="100.00" arrivalSpeed="25.02" duration="41.00" routeLength="958.05" waitingTime="0.00" waitingCount="0" stopTime="0.00" timeLoss="0.00" rerouteNo="0" devices="tripinfo_49" vType="DEFAULT_VEHTYPE" speedFactor="0.90" vaporized=""/>
    <tripinfo id="18" depart="17.00" departLane="" departPos="0.00" departSpeed="19.52" departDelay="0.00" arrival="91.00" arrivalLane="" arrivalPos="257.55" arrivalSpeed="24.40" duration="74.00" routeLength="1144.15" waitingTime="0.00" waitingCount="0" stopTime="0.00" timeLoss="0.00" rerouteNo="0" devices="tripinfo_18" vType="DEFAULT_VEHTYPE" speedFactor="0.88" vaporized=""/>
    <tripinfo id="46" depart="46.00" departLane="" departPos="0.00" departSpeed="28.98" departDelay="0.00" arrival="91.00" arrivalLane="" arrivalPos="100.00" arrivalSpeed="25.02" duration="45.00" routeLength="1209.17" waitingTime="0.24" waitingCount="0" stopTime="0.00" timeLoss="2.47" rerouteNo="0" devices="tripinfo_46" vType="DEFAULT_VEHTYPE" speedFactor="1.04" vaporized=""/>
    <tripinfo id="17" depart="17.00" departLane="" departPos="0.00" departSpeed="20.59" departDelay="0.00" arrival="92.00" arrivalLane="" arrivalPos="325.99" arrivalSpeed="20.59" duration="75.00" routeLength="1534.17" waitingTime="0.00" waitingCount="0" stopTime="0.00" timeLoss="0.00" rerouteNo="0" devices="tripinfo_17" vType="DEFAULT_VEHTYPE" speedFactor="0.93" vaporized=""/>
    <tripinfo id="8" depart="9.00" departLane="" departPos="0.00" departSpeed="8.17" departDelay="0.00" arrival="93.00" arrivalLane="" arrivalPos="325.99" arrivalSpeed="20.59" duration="84.00" routeLength="1775.73" waitingTime="0.00" waitingCount="0" stopTime="0.00" timeLoss="11.16" rerouteNo="0" devices="tripinfo_8" vType="DEFAULT_VEHTYPE" speedFactor="1.05" vaporized=""/>
    <tripinfo id="34" depart="29.00" departLane="" departPos="0.00" departSpeed="22.34" departDelay="0.00" arrival="93.00" arrivalLane="" arrivalPos="257.55" arrivalSpeed="27.92" duration="64.00" routeLength="1144.15" waitingTime="0.00" waitingCount="0" stopTime="0.00" timeLoss="0.00" rerouteNo="0" devices="tripinfo_34" vType="DEFAULT_VEHTYPE" speedFactor="1.01" vaporized=""/>
    <tripinfo id="11" depart="13.00" departLane="" departPos="0.00" departSpeed="23.80" departDelay="0.00" arrival="95.00" arrivalLane="" arrivalPos="806.12" arrivalSpeed="19.04" duration="82.00" routeLength="1290.02" waitingTime="0.00" waitingCount="0" stopTime="0.00" timeLoss="0.00" rerouteNo="0" devices="tripinfo_11" vType="DEFAULT_VEHTYPE" speedFactor="0.86" vaporized=""/>
    <tripinfo id="59" depart="63.00" departLane="" departPos="0.00" departSpeed="31.73" departDelay="0.00" arrival="95.00" arrivalLane="" arrivalPos="100.00" arrivalSpeed="31.74" duration="32.00" routeLength="952.53" waitingTime="0.00" waitingCount="0" stopTime="0.00" timeLoss="1.69" rerouteNo="0" devices="tripinfo_59" vType="DEFAULT_VEHTYPE" speedFactor="1.14" vaporized=""/>
    <tripinfo id="12" depart="13.00" departLane="" departPos="0.00" departSpeed="13.81" departDelay="0.00" arrival="96.00" arrivalLane="" arrivalPos="806.12" arrivalSpeed="19.04" duration="83.00" routeLength="1295.54" waitingTime="0.02" waitingCount="0" stopTime="0.00" timeLoss="17.16" rerouteNo="0" devices="tripinfo_12" vType="DEFAULT_VEHTYPE" speedFactor="1.09" vaporized=""/>
    <tripinfo id="44" depart="40.00" departLane="" departPos="0.00" departSpeed="11.82" departDelay="0.00" arrival="99.00" arrivalLane="" arrivalPos="325.99" arrivalSpeed="24.26" duration="59.00" routeLength="1300.17" waitingTime="0.00" waitingCount="0" stopTime="0.00" timeLoss="3.70" rerouteNo="0" devices="tripinfo_44" vType="DEFAULT_VEHTYPE" speedFactor="1.09" vaporized=""/>
    <tripinfo id="25" depart="22.00" departLane="" departPos="0.00" departSpeed="19.77" departDelay="0.00" arrival="100.00" arrivalLane="" arrivalPos="294.40" arrivalSpeed="24.71" duration="78.00" routeLength="1673.77" waitingTime="0.00" waitingCount="0" stopTime="0.00" timeLoss="0.00" rerouteNo="0" devices="tripinfo_25" vType="DEFAULT_VEHTYPE" speedFactor="0.89" vaporized=""/>
    <tripinfo id="48" depart="49.00" departLane="" departPos="0.00" departSpeed="13.85" departDelay="0.00" arrival="101.00" arrivalLane="" arrivalPos="143.59" arrivalSpeed="22.16" duration="52.00" routeLength="1084.30" waitingTime="0.92" waitingCount="0" stopTime="0.00" timeLoss="0.92" rerouteNo="0" devices="tripinfo_48" vType="DEFAULT_VEHTYPE" speedFactor="1.00" vaporized=""/>
    <tripinfo id="57" depart="60.00" departLane="" departPos="0.00" departSpeed="27.67" departDelay="0.00" arrival="104.00" arrivalLane="" arrivalPos="100.00" arrivalSpeed="27.67" duration="44.00" routeLength="1209.17" waitingTime="0.00" waitingCount="0" stopTime="0.00" timeLoss="0.00" rerouteNo="0" devices="tripinfo_57" vType="DEFAULT_VEHTYPE" speedFactor="1.00" vaporized=""/>
    <tripinfo id="37" depart="30.00" departLane="" departPos="0.00" departSpeed="21.26" departDelay="0.00" arrival="106.00" arrivalLane="" arrivalPos="143.59" arrivalSpeed="22.66" duration="76.00" routeLength="1790.95" waitingTime="1.04" waitingCount="0" stopTime="0.00" timeLoss="4.31" rerouteNo="0" devices="tripinfo_37" vType="DEFAULT_VEHTYPE" speedFactor="1.02" vaporized=""/>
    <tripinfo id="27" depart="23.00" departLane="" departPos="0.00" departSpeed="18.57" departDelay="0.00" arrival="107.00" arrivalLane="" arrivalPos="71.22" arrivalSpeed="12.12" duration="84.00" routeLength="1426.73" waitingTime="0.00" waitingCount="0" stopTime="0.00" timeLoss="0.33" rerouteNo="0" devices="tripinfo_27" vType="DEFAULT_VEHTYPE" speedFactor="0.87" vaporized=""/>
    <tripinfo id="42" depart="37.00" departLane="" departPos="0.00" departSpeed="28.62" departDelay="0.00" arrival="108.00" arrivalLane="" arrivalPos="143.59" arrivalSpeed="22.89" duration="71.00" routeLength="1790.95" waitingTime="0.00" waitingCount="0" stopTime="0.00" timeLoss="0.00" rerouteNo="0" devices="tripinfo_42" vType="DEFAULT_VEHTYPE" speedFactor="1.03" vaporized=""/>
    <tripinfo id="26" depart="22.00" departLane="" departPos="0.00" departSpeed="11.47" departDelay="0.00" arrival="109.00" arrivalLane="" arrivalPos="806.12" arrivalSpeed="18.35" duration="87.00" routeLength="1295.54" waitingTime="0.00" waitingCount="0" stopTime="0.00" timeLoss="0.00" rerouteNo="0" devices="tripinfo_26" vType="DEFAULT_VEHTYPE" speedFactor="0.83" vaporized=""/>
    <tripinfo id="51" depart="53.00" departLane="" departPos="0.00" departSpeed="23.62" departDelay="0.00" arrival="110.00" arrivalLane="" arrivalPos="257.55" arrivalSpeed="23.62" duration="57.00" routeLength="1324.09" waitingTime="0.00" waitingCount="0" stopTime="0.00" timeLoss="0.00" rerouteNo="0" devices="tripinfo_51" vType="DEFAULT_VEHTYPE" speedFactor="0.85" vaporized=""/>
    <tripinfo id="35" depart="30.00" departLane="" departPos="0.00" departSpeed="32.55" departDelay="0.00" arrival="111.00" arrivalLane="" arrivalPos="806.12" arrivalSpeed="18.35" duration="81.00" routeLength="2070.54" waitingTime="0.00" waitingCount="0" stopTime="0.00" timeLoss="6.98" rerouteNo="0" devices="tripinfo_35" vType="DEFAULT_VEHTYPE" speedFactor="1.17" vaporized=""/>
    <tripinfo id="66" depart="68.00" departLane="" departPos="0.00" departSpeed="18.95" departDelay="0.00" arrival="116.00" arrivalLane="" arrivalPos="100.00" arrivalSpeed="26.05" duration="48.00" routeLength="1209.17" waitingTime="0.00" waitingCount="0" stopTime="0.00" timeLoss="1.23" rerouteNo="0" devices="tripinfo_66" vType="DEFAULT_VEHTYPE" speedFactor="0.94" vaporized=""/>
    <tripinfo id="74" depart="81.00" departLane="" departPos="0.00" departSpeed="24.01" departDelay="0.00" arrival="117.00" arrivalLane="" arrivalPos="71.22" arrivalSpeed="13.06" duration="36.00" routeLength="848.93" waitingTime="0.00" waitingCount="0" stopTime="0.00" timeLoss="0.29" rerouteNo="0" devices="tripinfo_74" vType="DEFAULT_VEHTYPE" speedFactor="0.94" vaporized=""/>
    <tripinfo id="31" depart="26.00" departLane="" departPos="0.00" departSpeed="20.69" departDelay="0.00" arrival="118.00" arrivalLane="" arrivalPos="257.55" arrivalSpeed="25.87" duration="92.00" routeLength="1753.33" waitingTime="0.20" waitingCount="0" stopTime="0.00" timeLoss="3.39" rerouteNo="0" devices="tripinfo_31" vType="DEFAULT_VEHTYPE" speedFactor="0.93" vaporized=""/>
    <tripinfo id="50" depart="52.00" departLane="" departPos="0.00" departSpeed="12.18" departDelay="0.00" arrival="121.00" arrivalLane="" arrivalPos="325.99" arrivalSpeed="19.48" duration="69.00" routeLength="1300.17" waitingTime="0.00" waitingCount="0" stopTime="0.00" timeLoss="0.00" rerouteNo="0" devices="tripinfo_50" vType="DEFAULT_VEHTYPE" speedFactor="0.88" vaporized=""/>
    <tripinfo id="67" depart="69.00" departLane="" departPos="0.00" departSpeed="24.51" departDelay="0.00" arrival="121.00" arrivalLane="" arrivalPos="257.55" arrivalSpeed="24.51" duration="52.00" routeLength="1228.81" waitingTime="0.90" waitingCount="0" stopTime="0.00" timeLoss="0.90" rerouteNo="0" devices="tripinfo_67" vType="DEFAULT_VEHTYPE" speedFactor="0.88" vaporized=""/>
    <tripinfo id="61" depart="64.00" departLane="" departPos="0.00" departSpeed="26.93" departDelay="0.00" arrival="122.00" arrivalLane="" arrivalPos="294.40" arrivalSpeed="26.93" duration="58.00" routeLength="1556.98" waitingTime="0.00" waitingCount="0" stopTime="0.00" timeLoss="0.00" rerouteNo="0" devices="tripinfo_61" vType="DEFAULT_VEHTYPE" speedFactor="0.97" vaporized=""/>
    <tripinfo id="60" depart="63.00" departLane="" departPos="0.00" departSpeed="22.74" departDelay="0.00" arrival="123.00" arrivalLane="" arrivalPos="38.78" arrivalSpeed="14.22" duration="60.00" routeLength="1418.15" waitingTime="0.00" waitingCount="0" stopTime="0.00" timeLoss="0.00" rerouteNo="0" devices="tripinfo_60" vType="DEFAULT_VEHTYPE" speedFactor="1.02" vaporized=""/>
    <tripinfo id="87" depart="97.00" departLane="" departPos="0.00" departSpeed="27.10" departDelay="0.00" arrival="123.00" arrivalLane="" arrivalPos="71.22" arrivalSpeed="13.56" duration="26.00" routeLength="612.32" waitingTime="0.00" waitingCount="0" stopTime="0.00" timeLoss="0.00" rerouteNo="0" devices="tripinfo_87" vType="DEFAULT_VEHTYPE" speedFactor="0.98" vaporized=""/>
    <tripinfo id="29" depart="24.00" departLane="" departPos="0.00" departSpeed="21.08" departDelay="0.00" arrival="124.00" arrivalLane="" arrivalPos="257.55" arrivalSpeed="26.36" duration="100.00" routeLength="2030.30" waitingTime="0.00" waitingCount="0" stopTime="0.00" timeLoss="0.00" rerouteNo="0" devices="tripinfo_29" vType="DEFAULT_VEHTYPE" speedFactor="0.95" vaporized=""/>
    <tripinfo id="65" depart="68.00" departLane="" departPos="0.00" departSpeed="27.42" departDelay="0.00" arrival="125.00" arrivalLane="" arrivalPos="294.40" arrivalSpeed="27.42" duration="57.00" routeLength="1556.98" waitingTime="0.00" waitingCount="0" stopTime="0.00" timeLoss="0.00" rerouteNo="0" devices="tripinfo_65" vType="DEFAULT_VEHTYPE" speedFactor="0.99" vaporized=""/>
    <tripinfo id="41" depart="34.00" departLane="" departPos="0.00" departSpeed="20.01" departDelay="0.00" arrival="129.00" arrivalLane="" arrivalPos="71.22" arrivalSpeed="12.51" duration="95.00" routeLength="1703.70" waitingTime="0.00" waitingCount="0" stopTime="0.00" timeLoss="0.00" rerouteNo="0" devices="tripinfo_41" vType="DEFAULT_VEHTYPE" speedFactor="0.90" vaporized=""/>
    <tripinfo id="58" depart="62.00" departLane="" departPos="0.00" departSpeed="19.97" departDelay="0.00" arrival="129.00" arrivalLane="" arrivalPos="143.59" arrivalSpeed="19.97" duration="67.00" routeLength="1330.63" waitingTime="0.00" waitingCount="0" stopTime="0.00" timeLoss="0.00" rerouteNo="0" devices="tripinfo_58" vType="DEFAULT_VEHTYPE" speedFactor="0.90" vaporized=""/>
    <tripinfo id="52" depart="54.00" departLane="" departPos="0.00" departSpeed="23.75" departDelay="0.00" arrival="130.00" arrivalLane="" arrivalPos="325.99" arrivalSpeed="19.00" duration="76.00" routeLength="1146.34" waitingTime="0.00" waitingCount="0" stopTime="0.00" timeLoss="0.00" rerouteNo="0" devices="tripinfo_52" vType="DEFAULT_VEHTYPE" speedFactor="0.85" vaporized=""/>
    <tripinfo id="54" depart="56.00" departLane="" departPos="0.00" departSpeed="22.59" departDelay="0.00" arrival="131.00" arrivalLane="" arrivalPos="71.22" arrivalSpeed="12.51" duration="75.00" routeLength="1426.73" waitingTime="0.87" waitingCount="0" stopTime="0.00" timeLoss="2.74" rerouteNo="0" devices="tripinfo_54" vType="DEFAULT_VEHTYPE" speedFactor="1.02" vaporized=""/>
    <tripinfo id="55" depart="57.00" departLane="" departPos="0.00" departSpeed="24.35" departDelay="0.00" arrival="132.00" arrivalLane="" arrivalPos="294.40" arrivalSpeed="30.44" duration="75.00" routeLength="1580.63" waitingTime="0.00" waitingCount="0" stopTime="0.00" timeLoss="0.00" rerouteNo="0" devices="tripinfo_55" vType="DEFAULT_VEHTYPE" speedFactor="1.10" vaporized=""/>
    <tripinfo id="68" depart="70.00" departLane="" departPos="0.00" departSpeed="12.59" departDelay="0.00" arrival="135.00" arrivalLane="" arrivalPos="143.59" arrivalSpeed="20.15" duration="65.00" routeLength="1015.95" waitingTime="0.00" waitingCount="0" stopTime="0.00" timeLoss="0.00" rerouteNo="0" devices="tripinfo_68" vType="DEFAULT_VEHTYPE" speedFactor="0.91" vaporized=""/>
    <tripinfo id="56" depart="60.00" departLane="" departPos="0.00" departSpeed="13.93" departDelay="0.00" arrival="136.00" arrivalLane="" arrivalPos="325.99" arrivalSpeed="22.29" duration="76.00" routeLength="1775.73" waitingTime="0.00" waitingCount="0" stopTime="0.00" timeLoss="0.00" rerouteNo="0" devices="tripinfo_56" vType="DEFAULT_VEHTYPE" speedFactor="1.00" vaporized=""/>
    <tripinfo id="62" depart="64.00" departLane="" departPos="0.00" departSpeed="15.04" departDelay="0.00" arrival="138.00" arrivalLane="" arrivalPos="325.99" arrivalSpeed="22.29" duration="74.00" routeLength="1775.73" waitingTime="0.64" waitingCount="0" stopTime="0.00" timeLoss="3.03" rerouteNo="0" devices="tripinfo_62" vType="DEFAULT_VEHTYPE" speedFactor="1.08" vaporized=""/>
    <tripinfo id="114" depart="113.00" departLane="" departPos="0.00" departSpeed="11.19" departDelay="0.00" arrival="139.00" arrivalLane="" arrivalPos="71.22" arrivalSpeed="15.26" duration="26.00" routeLength="617.84" waitingTime="0.00" waitingCount="0" stopTime="0.00" timeLoss="1.11" rerouteNo="0" devices="tripinfo_114" vType="DEFAULT_VEHTYPE" speedFactor="1.10" vaporized=""/>
    <tripinfo id="45" depart="45.00" departLane="" departPos="0.00" departSpeed="23.06" departDelay="0.00" arrival="140.00" arrivalLane="" arrivalPos="257.55" arrivalSpeed="28.83" duration="95.00" routeLength="2030.30" waitingTime="1.13" waitingCount="0" stopTime="0.00" timeLoss="3.09" rerouteNo="0" devices="tripinfo_45" vType="DEFAULT_VEHTYPE" speedFactor="1.04" vaporized=""/>
    <tripinfo id="64" depart="66.00" departLane="" departPos="0.00" departSpeed="28.22" departDelay="0.00" arrival="140.00" arrivalLane="" arrivalPos="806.12" arrivalSpeed="22.57" duration="74.00" routeLength="1738.65" waitingTime="0.79" waitingCount="0" stopTime="0.00" timeLoss="1.15" rerouteNo="0" devices="tripinfo_64" vType="DEFAULT_VEHTYPE" speedFactor="1.02" vaporized=""/>
    <tripinfo id="63" depart="65.00" departLane="" departPos="0.00" departSpeed="24.87" departDelay="0.00" arrival="142.00" arrivalLane="" arrivalPos="806.12" arrivalSpeed="22.57" duration="77.00" routeLength="1811.89" waitingTime="0.00" waitingCount="0" stopTime="0.00" timeLoss="3.32" rerouteNo="0" devices="tripinfo_63" vType="DEFAULT_VEHTYPE" speedFactor="1.12" vaporized=""/>
    <tripinfo id="84" depart="94.00" departLane="" departPos="0.00" departSpeed="14.12" departDelay="0.00" arrival="143.00" arrivalLane="" arrivalPos="257.55" arrivalSpeed="28.25" duration="49.00" routeLength="1329.61" waitingTime="0.00" waitingCount="0" stopTime="0.00" timeLoss="0.00" rerouteNo="0" devices="tripinfo_84" vType="DEFAULT_VEHTYPE" speedFactor="1.02" vaporized=""/>
    <tripinfo id="88" depart="97.00" departLane="" departPos="0.00" departSpeed="27.83" departDelay="0.00" arrival="146.00" arrivalLane="" arrivalPos="38.78" arrivalSpeed="13.91" duration="49.00" routeLength="1301.36" waitingTime="0.00" waitingCount="0" stopTime="0.00" timeLoss="0.33" rerouteNo="0" devices="tripinfo_88" vType="DEFAULT_VEHTYPE" speedFactor="1.00" vaporized=""/>
    <tripinfo id="71" depart="73.00" departLane="" departPos="0.00" departSpeed="28.39" departDelay="0.00" arrival="147.00" arrivalLane="" arrivalPos="806.12" arrivalSpeed="22.71" duration="74.00" routeLength="1290.02" waitingTime="0.92" waitingCount="0" stopTime="0.00" timeLoss="4.89" rerouteNo="0" devices="tripinfo_71" vType="DEFAULT_VEHTYPE" speedFactor="1.02" vaporized=""/>
    <tripinfo id="73" depart="80.00" departLane="" departPos="0.00" departSpeed="27.03" departDelay="0.00" arrival="147.00" arrivalLane="" arrivalPos="325.99" arrivalSpeed="21.62" duration="67.00" routeLength="1146.34" waitingTime="0.00" waitingCount="0" stopTime="0.00" timeLoss="0.00" rerouteNo="0" devices="tripinfo_73" vType="DEFAULT_VEHTYPE" speedFactor="0.97" vaporized=""/>
    <tripinfo id="78" depart="88.00" departLane="" departPos="0.00" departSpeed="22.94" departDelay="0.00" arrival="148.00" arrivalLane="" arrivalPos="806.12" arrivalSpeed="22.71" duration="60.00" routeLength="1333.25" waitingTime="1.02" waitingCount="0" stopTime="0.00" timeLoss="1.38" rerouteNo="0" devices="tripinfo_78" vType="DEFAULT_VEHTYPE" speedFactor="1.03" vaporized=""/>