<?xml version="1.0" encoding="UTF-8"?>

<!-- generated on 2023-04-29 21:44:14 by Eclipse SUMO sumo Version 1.16.0
<configuration xmlns:xsi="http://www.w3.org/2001/XMLSchema-instance" xsi:noNamespaceSchemaLocation="http://sumo.dlr.de/xsd/sumoConfiguration.xsd">

    <input>
        <net-file value="C:\Users\Local_Man\Desktop\Stolen%20Music\school%20stuff%20for%20college\Semester%2015%20(UH%20Graduate%20School)\COSC%206364%20Nikolaos\SUMO_Project\COSC6364_Project\configurations\maps\4corners_neighborhoods.net.xml"/>
        <route-files value="./configurations/Rounds/4corners_neighborhoods.net.xml-test-4/Microscopic_DUE/007/Trips_File_007.rou.xml"/>
    </input>

    <output>
        <summary-output value="./configurations/Rounds/4corners_neighborhoods.net.xml-test-4/Microscopic_DUE/007/summary.xml"/>
        <tripinfo-output value="./configurations/Rounds/4corners_neighborhoods.net.xml-test-4/Microscopic_DUE/007/trips.trips.xml"/>
        <statistic-output value="./configurations/Rounds/4corners_neighborhoods.net.xml-test-4/Microscopic_DUE/007/stats_output.xml"/>
    </output>

    <time>
        <begin value="0"/>
    </time>

    <report>
        <log value="./configurations/Rounds/4corners_neighborhoods.net.xml-test-4/Microscopic_DUE/007/log.sumo.log"/>
        <no-step-log value="true"/>
    </report>

    <gui_only>
        <quit-on-end value="true"/>
    </gui_only>

</configuration>
-->

<tripinfos xmlns:xsi="http://www.w3.org/2001/XMLSchema-instance" xsi:noNamespaceSchemaLocation="http://sumo.dlr.de/xsd/tripinfo_file.xsd">
    <tripinfo id="4" depart="3.00" departLane="597602753#0_0" departPos="5.10" departSpeed="0.00" departDelay="0.00" arrival="78.00" arrivalLane="-105681660#20_0" arrivalPos="806.12" arrivalSpeed="21.54" duration="75.00" routeLength="1387.70" waitingTime="0.00" waitingCount="0" stopTime="0.00" timeLoss="11.68" rerouteNo="0" devices="tripinfo_4" vType="DEFAULT_VEHTYPE" speedFactor="1.01" vaporized=""/>
    <tripinfo id="3" depart="2.00" departLane="918280985_0" departPos="5.10" departSpeed="0.00" departDelay="0.00" arrival="87.00" arrivalLane="15374898#0-AddedOffRampEdge_0" arrivalPos="100.00" arrivalSpeed="24.83" duration="85.00" routeLength="996.81" waitingTime="28.00" waitingCount="1" stopTime="0.00" timeLoss="43.35" rerouteNo="0" devices="tripinfo_3" vType="DEFAULT_VEHTYPE" speedFactor="0.94" vaporized=""/>
    <tripinfo id="10" depart="8.00" departLane="-260998164#3_0" departPos="5.10" departSpeed="0.00" departDelay="0.00" arrival="88.00" arrivalLane="422688976#1_0" arrivalPos="294.40" arrivalSpeed="24.76" duration="80.00" routeLength="1702.46" waitingTime="0.00" waitingCount="0" stopTime="0.00" timeLoss="13.81" rerouteNo="0" devices="tripinfo_10" vType="DEFAULT_VEHTYPE" speedFactor="0.94" vaporized=""/>
    <tripinfo id="5" depart="3.00" departLane="422688973_0" departPos="5.10" departSpeed="0.00" departDelay="0.00" arrival="94.00" arrivalLane="-597602753#1_0" arrivalPos="143.59" arrivalSpeed="23.09" duration="91.00" routeLength="1063.91" waitingTime="5.00" waitingCount="1" stopTime="0.00" timeLoss="24.82" rerouteNo="0" devices="tripinfo_5" vType="DEFAULT_VEHTYPE" speedFactor="1.08" vaporized=""/>
    <tripinfo id="9" depart="10.00" departLane="918280985_0" departPos="5.10" departSpeed="0.00" departDelay="2.00" arrival="95.00" arrivalLane="15374898#0-AddedOffRampEdge_0" arrivalPos="100.00" arrivalSpeed="23.65" duration="85.00" routeLength="996.81" waitingTime="23.00" waitingCount="1" stopTime="0.00" timeLoss="40.47" rerouteNo="0" devices="tripinfo_9" vType="DEFAULT_VEHTYPE" speedFactor="0.89" vaporized=""/>
    <tripinfo id="39" depart="48.00" departLane="918280985_0" departPos="5.10" departSpeed="0.00" departDelay="0.00" arrival="98.00" arrivalLane="15374898#0-AddedOffRampEdge_0" arrivalPos="100.00" arrivalSpeed="32.16" duration="50.00" routeLength="996.81" waitingTime="0.00" waitingCount="0" stopTime="0.00" timeLoss="16.50" rerouteNo="0" devices="tripinfo_39" vType="DEFAULT_VEHTYPE" speedFactor="1.18" vaporized=""/>
    <tripinfo id="14" depart="15.00" departLane="-260998164#3_0" departPos="5.10" departSpeed="0.00" departDelay="3.00" arrival="105.00" arrivalLane="-318908683#1_0" arrivalPos="71.22" arrivalSpeed="14.10" duration="90.00" routeLength="955.07" waitingTime="38.00" waitingCount="1" stopTime="0.00" timeLoss="52.62" rerouteNo="0" devices="tripinfo_14" vType="DEFAULT_VEHTYPE" speedFactor="1.05" vaporized=""/>
    <tripinfo id="28" depart="30.00" departLane="-260998164#3_0" departPos="5.10" departSpeed="0.00" departDelay="0.00" arrival="107.00" arrivalLane="-318908683#1_0" arrivalPos="71.22" arrivalSpeed="12.43" duration="77.00" routeLength="955.07" waitingTime="21.00" waitingCount="1" stopTime="0.00" timeLoss="34.93" rerouteNo="0" devices="tripinfo_28" vType="DEFAULT_VEHTYPE" speedFactor="0.92" vaporized=""/>
    <tripinfo id="15" depart="13.00" departLane="105681660#12_0" departPos="5.10" departSpeed="0.00" departDelay="0.00" arrival="110.00" arrivalLane="-597602756#0_0" arrivalPos="325.99" arrivalSpeed="24.30" duration="97.00" routeLength="1877.95" waitingTime="0.00" waitingCount="0" stopTime="0.00" timeLoss="18.27" rerouteNo="0" devices="tripinfo_15" vType="DEFAULT_VEHTYPE" speedFactor="1.12" vaporized=""/>
    <tripinfo id="24" depart="23.00" departLane="422688973_0" departPos="5.10" departSpeed="0.00" departDelay="0.00" arrival="117.00" arrivalLane="-597602753#1_0" arrivalPos="143.59" arrivalSpeed="20.48" duration="94.00" routeLength="1114.81" waitingTime="7.00" waitingCount="2" stopTime="0.00" timeLoss="27.06" rerouteNo="0" devices="tripinfo_24" vType="DEFAULT_VEHTYPE" speedFactor="0.97" vaporized=""/>
    <tripinfo id="18" depart="17.00" departLane="597602756#0_0" departPos="5.10" departSpeed="0.00" departDelay="0.00" arrival="119.00" arrivalLane="-318908683#1_0" arrivalPos="71.22" arrivalSpeed="11.10" duration="102.00" routeLength="1382.88" waitingTime="0.00" waitingCount="0" stopTime="0.00" timeLoss="14.73" rerouteNo="0" devices="tripinfo_18" vType="DEFAULT_VEHTYPE" speedFactor="0.88" vaporized=""/>
    <tripinfo id="27" depart="30.00" departLane="318908683#0_0" departPos="5.10" departSpeed="0.00" departDelay="0.00" arrival="125.00" arrivalLane="-597602753#1_0" arrivalPos="143.59" arrivalSpeed="18.82" duration="95.00" routeLength="1208.14" waitingTime="12.00" waitingCount="1" stopTime="0.00" timeLoss="30.54" rerouteNo="0" devices="tripinfo_27" vType="DEFAULT_VEHTYPE" speedFactor="0.87" vaporized=""/>
    <tripinfo id="22" depart="23.00" departLane="597602756#0_0" departPos="5.10" departSpeed="0.00" departDelay="3.00" arrival="127.00" arrivalLane="-597602753#1_0" arrivalPos="143.59" arrivalSpeed="22.18" duration="104.00" routeLength="1638.96" waitingTime="0.00" waitingCount="0" stopTime="0.00" timeLoss="30.13" rerouteNo="0" devices="tripinfo_22" vType="DEFAULT_VEHTYPE" speedFactor="1.02" vaporized=""/>
    <tripinfo id="7" depart="7.00" departLane="918280985_0" departPos="5.10" departSpeed="0.00" departDelay="0.00" arrival="136.00" arrivalLane="-318908683#1_0" arrivalPos="71.22" arrivalSpeed="10.69" duration="129.00" routeLength="674.50" waitingTime="74.00" waitingCount="2" stopTime="0.00" timeLoss="92.36" rerouteNo="0" devices="tripinfo_7" vType="DEFAULT_VEHTYPE" speedFactor="0.83" vaporized=""/>
    <tripinfo id="36" depart="44.00" departLane="105681660#12_0" departPos="5.10" departSpeed="0.00" departDelay="0.00" arrival="137.00" arrivalLane="-597602753#1_0" arrivalPos="143.59" arrivalSpeed="21.08" duration="93.00" routeLength="1380.56" waitingTime="14.00" waitingCount="1" stopTime="0.00" timeLoss="29.04" rerouteNo="0" devices="tripinfo_36" vType="DEFAULT_VEHTYPE" speedFactor="0.99" vaporized=""/>
    <tripinfo id="20" depart="19.00" departLane="422688973_0" departPos="5.10" departSpeed="0.00" departDelay="0.00" arrival="138.00" arrivalLane="-318908683#1_0" arrivalPos="71.22" arrivalSpeed="12.54" duration="119.00" routeLength="684.23" waitingTime="65.00" waitingCount="2" stopTime="0.00" timeLoss="88.38" rerouteNo="0" devices="tripinfo_20" vType="DEFAULT_VEHTYPE" speedFactor="0.94" vaporized=""/>
    <tripinfo id="35" depart="44.00" departLane="422688973_0" departPos="5.10" departSpeed="0.00" departDelay="1.00" arrival="139.00" arrivalLane="-318908683#1_0" arrivalPos="71.22" arrivalSpeed="13.20" duration="95.00" routeLength="684.23" waitingTime="39.00" waitingCount="2" stopTime="0.00" timeLoss="71.21" rerouteNo="0" devices="tripinfo_35" vType="DEFAULT_VEHTYPE" speedFactor="1.17" vaporized=""/>
    <tripinfo id="42" depart="52.00" departLane="597602756#0_0" departPos="5.10" departSpeed="0.00" departDelay="0.00" arrival="140.00" arrivalLane="260998164#0_0" arrivalPos="257.55" arrivalSpeed="27.84" duration="88.00" routeLength="1239.91" waitingTime="0.00" waitingCount="0" stopTime="0.00" timeLoss="16.49" rerouteNo="0" devices="tripinfo_42" vType="DEFAULT_VEHTYPE" speedFactor="1.03" vaporized=""/>
    <tripinfo id="23" depart="21.00" departLane="918280985_0" departPos="5.10" departSpeed="0.00" departDelay="0.00" arrival="143.00" arrivalLane="-597602753#1_0" arrivalPos="143.59" arrivalSpeed="21.22" duration="122.00" routeLength="1072.66" waitingTime="20.00" waitingCount="2" stopTime="0.00" timeLoss="49.30" rerouteNo="0" devices="tripinfo_23" vType="DEFAULT_VEHTYPE" speedFactor="1.01" vaporized=""/>
    <tripinfo id="37" depart="45.00" departLane="918280985_0" departPos="5.10" departSpeed="0.00" departDelay="0.00" arrival="146.00" arrivalLane="-597602753#1_0" arrivalPos="143.59" arrivalSpeed="21.60" duration="101.00" routeLength="1123.56" waitingTime="15.00" waitingCount="2" stopTime="0.00" timeLoss="35.00" rerouteNo="0" devices="tripinfo_37" vType="DEFAULT_VEHTYPE" speedFactor="1.02" vaporized=""/>
    <tripinfo id="81" depart="92.00" departLane="918280985_0" departPos="5.10" departSpeed="0.00" departDelay="4.00" arrival="147.00" arrivalLane="-318908683#1_0" arrivalPos="71.22" arrivalSpeed="14.28" duration="55.00" routeLength="674.50" waitingTime="10.00" waitingCount="1" stopTime="0.00" timeLoss="27.49" rerouteNo="0" devices="tripinfo_81" vType="DEFAULT_VEHTYPE" speedFactor="1.09" vaporized=""/>
    <tripinfo id="47" depart="56.00" departLane="-260998164#3_0" departPos="5.10" departSpeed="0.00" departDelay="0.00" arrival="149.00" arrivalLane="-597602756#0_0" arrivalPos="325.99" arrivalSpeed="23.91" duration="93.00" routeLength="1707.85" waitingTime="0.00" waitingCount="0" stopTime="0.00" timeLoss="16.92" rerouteNo="0" devices="tripinfo_47" vType="DEFAULT_VEHTYPE" speedFactor="1.09" vaporized=""/>
    <tripinfo id="63" depart="72.00" departLane="918280985_0" departPos="5.10" departSpeed="0.00" departDelay="0.00" arrival="149.00" arrivalLane="15374898#0-AddedOffRampEdge_0" arrivalPos="100.00" arrivalSpeed="30.87" duration="77.00" routeLength="996.81" waitingTime="20.00" waitingCount="1" stopTime="0.00" timeLoss="42.10" rerouteNo="0" devices="tripinfo_63" vType="DEFAULT_VEHTYPE" speedFactor="1.12" vaporized=""/>
    <tripinfo id="17" depart="16.00" departLane="918280985_0" departPos="5.10" departSpeed="0.00" departDelay="0.00" arrival="150.00" arrivalLane="-105681660#20_0" arrivalPos="806.12" arrivalSpeed="20.12" duration="134.00" routeLength="1360.98" waitingTime="30.00" waitingCount="2" stopTime="0.00" timeLoss="51.84" rerouteNo="0" devices="tripinfo_17" vType="DEFAULT_VEHTYPE" speedFactor="0.93" vaporized=""/>
    <tripinfo id="32" depart="38.00" departLane="-260998164#3_0" departPos="5.10" departSpeed="0.00" departDelay="0.00" arrival="150.00" arrivalLane="-597602753#1_0" arrivalPos="143.59" arrivalSpeed="25.65" duration="112.00" routeLength="1979.71" waitingTime="1.00" waitingCount="1" stopTime="0.00" timeLoss="41.42" rerouteNo="0" devices="tripinfo_32" vType="DEFAULT_VEHTYPE" speedFactor="1.18" vaporized=""/>
    <tripinfo id="6" depart="6.00" departLane="597602753#0_0" departPos="5.10" departSpeed="0.00" departDelay="2.00" arrival="154.00" arrivalLane="15374898#0-AddedOffRampEdge_0" arrivalPos="100.00" arrivalSpeed="28.31" duration="148.00" routeLength="1964.42" waitingTime="19.00" waitingCount="1" stopTime="0.00" timeLoss="46.45" rerouteNo="0" devices="tripinfo_6" vType="DEFAULT_VEHTYPE" speedFactor="1.03" vaporized=""/>
    <tripinfo id="26" depart="29.00" departLane="422685671#2_0" departPos="5.10" departSpeed="0.00" departDelay="0.00" arrival="155.00" arrivalLane="422688976#1_0" arrivalPos="294.40" arrivalSpeed="22.89" duration="126.00" routeLength="1317.05" waitingTime="44.00" waitingCount="2" stopTime="0.00" timeLoss="66.42" rerouteNo="0" devices="tripinfo_26" vType="DEFAULT_VEHTYPE" speedFactor="0.83" vaporized=""/>
    <tripinfo id="75" depart="83.00" departLane="918280985_0" departPos="5.10" departSpeed="0.00" departDelay="0.00" arrival="158.00" arrivalLane="15374898#0-AddedOffRampEdge_0" arrivalPos="100.00" arrivalSpeed="28.89" duration="75.00" routeLength="996.81" waitingTime="14.00" waitingCount="1" stopTime="0.00" timeLoss="37.51" rerouteNo="0" devices="tripinfo_75" vType="DEFAULT_VEHTYPE" speedFactor="1.06" vaporized=""/>
    <tripinfo id="86" depart="93.00" departLane="422685671#2_0" departPos="5.10" departSpeed="0.00" departDelay="1.00" arrival="159.00" arrivalLane="422688976#1_1" arrivalPos="294.40" arrivalSpeed="31.19" duration="66.00" routeLength="1317.05" waitingTime="0.00" waitingCount="0" stopTime="0.00" timeLoss="23.44" rerouteNo="0" devices="tripinfo_86" vType="DEFAULT_VEHTYPE" speedFactor="1.15" vaporized=""/>
    <tripinfo id="33" depart="41.00" departLane="422685671#2_0" departPos="5.10" departSpeed="0.00" departDelay="0.00" arrival="160.00" arrivalLane="-597602753#1_0" arrivalPos="143.59" arrivalSpeed="25.42" duration="119.00" routeLength="1584.34" waitingTime="30.00" waitingCount="1" stopTime="0.00" timeLoss="58.86" rerouteNo="0" devices="tripinfo_33" vType="DEFAULT_VEHTYPE" speedFactor="1.15" vaporized=""/>
    <tripinfo id="64" depart="73.00" departLane="-260998164#3_0" departPos="5.10" departSpeed="0.00" departDelay="0.00" arrival="162.00" arrivalLane="-597602756#0_0" arrivalPos="325.99" arrivalSpeed="21.34" duration="89.00" routeLength="1231.40" waitingTime="0.00" waitingCount="0" stopTime="0.00" timeLoss="17.03" rerouteNo="0" devices="tripinfo_64" vType="DEFAULT_VEHTYPE" speedFactor="1.02" vaporized=""/>
    <tripinfo id="12" depart="12.00" departLane="-260998164#3_0" departPos="5.10" departSpeed="0.00" departDelay="0.00" arrival="164.00" arrivalLane="918280984_0" arrivalPos="38.78" arrivalSpeed="14.72" duration="152.00" routeLength="1465.15" waitingTime="71.00" waitingCount="2" stopTime="0.00" timeLoss="99.46" rerouteNo="0" devices="tripinfo_12" vType="DEFAULT_VEHTYPE" speedFactor="1.09" vaporized=""/>
    <tripinfo id="29" depart="33.00" departLane="-260998164#3_0" departPos="5.10" departSpeed="0.00" departDelay="1.00" arrival="164.00" arrivalLane="-105681660#20_0" arrivalPos="806.12" arrivalSpeed="19.97" duration="131.00" routeLength="2208.42" waitingTime="2.00" waitingCount="2" stopTime="0.00" timeLoss="32.61" rerouteNo="0" devices="tripinfo_29" vType="DEFAULT_VEHTYPE" speedFactor="0.95" vaporized=""/>
    <tripinfo id="2" depart="0.00" departLane="597602756#0_0" departPos="5.10" departSpeed="0.00" departDelay="0.00" arrival="166.00" arrivalLane="918280984_0" arrivalPos="38.78" arrivalSpeed="13.58" duration="166.00" routeLength="1892.96" waitingTime="43.00" waitingCount="1" stopTime="0.00" timeLoss="75.91" rerouteNo="0" devices="tripinfo_2" vType="DEFAULT_VEHTYPE" speedFactor="1.06" vaporized=""/>
    <tripinfo id="57" depart="69.00" departLane="422685671#2_0" departPos="5.10" departSpeed="0.00" departDelay="0.00" arrival="168.00" arrivalLane="918280984_0" arrivalPos="38.78" arrivalSpeed="13.03" duration="99.00" routeLength="1069.78" waitingTime="26.00" waitingCount="2" stopTime="0.00" timeLoss="55.46" rerouteNo="0" devices="tripinfo_57" vType="DEFAULT_VEHTYPE" speedFactor="1.00" vaporized=""/>
    <tripinfo id="53" depart="63.00" departLane="422685671#2_0" departPos="5.10" departSpeed="0.00" departDelay="0.00" arrival="171.00" arrivalLane="-597602756#0_0" arrivalPos="325.99" arrivalSpeed="25.20" duration="108.00" routeLength="1778.05" waitingTime="8.00" waitingCount="1" stopTime="0.00" timeLoss="40.10" rerouteNo="0" devices="tripinfo_53" vType="DEFAULT_VEHTYPE" speedFactor="1.17" vaporized=""/>
    <tripinfo id="58" depart="70.00" departLane="-260998164#3_0" departPos="5.10" departSpeed="0.00" departDelay="0.00" arrival="171.00" arrivalLane="918280984_0" arrivalPos="38.78" arrivalSpeed="12.09" duration="101.00" routeLength="1455.19" waitingTime="14.00" waitingCount="2" stopTime="0.00" timeLoss="37.99" rerouteNo="0" devices="tripinfo_58" vType="DEFAULT_VEHTYPE" speedFactor="0.90" vaporized=""/>
    <tripinfo id="13" depart="12.00" departLane="422685671#2_0" departPos="5.10" departSpeed="0.00" departDelay="0.00" arrival="172.00" arrivalLane="-105681660#20_0" arrivalPos="806.12" arrivalSpeed="21.93" duration="160.00" routeLength="1813.05" waitingTime="53.00" waitingCount="1" stopTime="0.00" timeLoss="82.05" rerouteNo="0" devices="tripinfo_13" vType="DEFAULT_VEHTYPE" speedFactor="1.03" vaporized=""/>
    <tripinfo id="21" depart="20.00" departLane="597602753#0_0" departPos="5.10" departSpeed="0.00" departDelay="0.00" arrival="172.00" arrivalLane="15374898#0-AddedOffRampEdge_0" arrivalPos="100.00" arrivalSpeed="32.04" duration="152.00" routeLength="1964.42" waitingTime="24.00" waitingCount="2" stopTime="0.00" timeLoss="61.45" rerouteNo="0" devices="tripinfo_21" vType="DEFAULT_VEHTYPE" speedFactor="1.16" vaporized=""/>
    <tripinfo id="82" depart="89.00" departLane="105681660#12_0" departPos="5.10" departSpeed="0.00" departDelay="0.00" arrival="173.00" arrivalLane="-597602753#1_0" arrivalPos="143.59" arrivalSpeed="22.59" duration="84.00" routeLength="1380.56" waitingTime="8.00" waitingCount="1" stopTime="0.00" timeLoss="22.28" rerouteNo="0" devices="tripinfo_82" vType="DEFAULT_VEHTYPE" speedFactor="1.03" vaporized=""/>
    <tripinfo id="72" depart="81.00" departLane="318908683#0_0" departPos="5.10" departSpeed="0.00" departDelay="3.00" arrival="176.00" arrivalLane="260998164#0_0" arrivalPos="257.55" arrivalSpeed="27.41" duration="95.00" routeLength="939.98" waitingTime="44.00" waitingCount="1" stopTime="0.00" timeLoss="57.57" rerouteNo="0" devices="tripinfo_72" vType="DEFAULT_VEHTYPE" speedFactor="1.02" vaporized=""/>
    <tripinfo id="61" depart="72.00" departLane="422685671#2_0" departPos="5.10" departSpeed="0.00" departDelay="0.00" arrival="183.00" arrivalLane="-597602756#0_0" arrivalPos="325.99" arrivalSpeed="21.49" duration="111.00" routeLength="1778.05" waitingTime="0.00" waitingCount="0" stopTime="0.00" timeLoss="30.37" rerouteNo="0" devices="tripinfo_61" vType="DEFAULT_VEHTYPE" speedFactor="0.97" vaporized=""/>
    <tripinfo id="49" depart="62.00" departLane="597602753#0_0" departPos="5.10" departSpeed="0.00" departDelay="3.00" arrival="186.00" arrivalLane="918280984_0" arrivalPos="38.78" arrivalSpeed="11.72" duration="124.00" routeLength="1061.00" waitingTime="27.00" waitingCount="1" stopTime="0.00" timeLoss="43.74" rerouteNo="0" devices="tripinfo_49" vType="DEFAULT_VEHTYPE" speedFactor="0.90" vaporized=""/>
    <tripinfo id="56" depart="68.00" departLane="105681660#12_0" departPos="5.10" departSpeed="0.00" departDelay="0.00" arrival="188.00" arrivalLane="918280984_0" arrivalPos="38.78" arrivalSpeed="13.61" duration="120.00" routeLength="1405.13" waitingTime="20.00" waitingCount="1" stopTime="0.00" timeLoss="39.23" rerouteNo="0" devices="tripinfo_56" vType="DEFAULT_VEHTYPE" speedFactor="1.00" vaporized=""/>
    <tripinfo id="46" depart="55.00" departLane="105681660#12_0" departPos="5.10" departSpeed="0.00" departDelay="0.00" arrival="192.00" arrivalLane="260998164#0_0" arrivalPos="257.55" arrivalSpeed="28.12" duration="137.00" routeLength="2169.41" waitingTime="7.00" waitingCount="1" stopTime="0.00" timeLoss="35.64" rerouteNo="0" devices="tripinfo_46" vType="DEFAULT_VEHTYPE" speedFactor="1.04" vaporized=""/>
    <tripinfo id="87" depart="94.00" departLane="597602753#0_0" departPos="5.10" departSpeed="0.00" departDelay="0.00" arrival="192.00" arrivalLane="918280984_0" arrivalPos="38.78" arrivalSpeed="12.46" duration="98.00" routeLength="1061.00" waitingTime="4.00" waitingCount="1" stopTime="0.00" timeLoss="23.84" rerouteNo="0" devices="tripinfo_87" vType="DEFAULT_VEHTYPE" speedFactor="0.98" vaporized=""/>
    <tripinfo id="45" depart="53.00" departLane="422688973_0" departPos="5.10" departSpeed="0.00" departDelay="0.00" arrival="194.00" arrivalLane="260998164#0_0" arrivalPos="257.55" arrivalSpeed="28.50" duration="141.00" routeLength="1470.06" waitingTime="60.00" waitingCount="2" stopTime="0.00" timeLoss="88.21" rerouteNo="0" devices="tripinfo_45" vType="DEFAULT_VEHTYPE" speedFactor="1.04" vaporized=""/>
    <tripinfo id="59" depart="71.00" departLane="105681660#12_0" departPos="5.10" departSpeed="0.00" departDelay="0.00" arrival="199.00" arrivalLane="422688976#1_0" arrivalPos="294.40" arrivalSpeed="31.45" duration="128.00" routeLength="1630.66" waitingTime="19.00" waitingCount="1" stopTime="0.00" timeLoss="50.55" rerouteNo="0" devices="tripinfo_59" vType="DEFAULT_VEHTYPE" speedFactor="1.14" vaporized=""/>
    <tripinfo id="51" depart="61.00" departLane="422688973_0" departPos="5.10" departSpeed="0.00" departDelay="0.00" arrival="202.00" arrivalLane="260998164#0_0" arrivalPos="257.55" arrivalSpeed="22.43" duration="141.00" routeLength="1470.06" waitingTime="57.00" waitingCount="1" stopTime="0.00" timeLoss="76.33" rerouteNo="0" devices="tripinfo_51" vType="DEFAULT_VEHTYPE" speedFactor="0.85" vaporized=""/>
    <tripinfo id="71" depart="78.00" departLane="918280985_0" departPos="5.10" departSpeed="0.00" departDelay="0.00" arrival="203.00" arrivalLane="260998164#0_0" arrivalPos="257.55" arrivalSpeed="25.35" duration="125.00" routeLength="1460.33" waitingTime="41.00" waitingCount="2" stopTime="0.00" timeLoss="69.42" rerouteNo="0" devices="tripinfo_71" vType="DEFAULT_VEHTYPE" speedFactor="1.02" vaporized=""/>
    <tripinfo id="97" depart="116.00" departLane="918280985_0" departPos="5.10" departSpeed="0.00" departDelay="7.00" arrival="205.00" arrivalLane="-597602753#1_0" arrivalPos="143.59" arrivalSpeed="22.74" duration="89.00" routeLength="1136.78" waitingTime="0.00" waitingCount="0" stopTime="0.00" timeLoss="14.23" rerouteNo="0" devices="tripinfo_97" vType="DEFAULT_VEHTYPE" speedFactor="1.06" vaporized=""/>
    <tripinfo id="100" depart="119.00" departLane="918280985_0" departPos="5.10" departSpeed="0.00" departDelay="8.00" arrival="205.00" arrivalLane="260998164#0_0" arrivalPos="257.55" arrivalSpeed="26.12" duration="86.00" routeLength="1460.33" waitingTime="6.00" waitingCount="1" stopTime="0.00" timeLoss="35.46" rerouteNo="0" devices="tripinfo_100" vType="DEFAULT_VEHTYPE" speedFactor="1.12" vaporized=""/>
    <tripinfo id="8" depart="8.00" departLane="105681660#12_0" departPos="5.10" departSpeed="0.00" departDelay="0.00" arrival="206.00" arrivalLane="260998164#0_0" arrivalPos="257.55" arrivalSpeed="27.03" duration="198.00" routeLength="2772.07" waitingTime="24.00" waitingCount="4" stopTime="0.00" timeLoss="73.43" rerouteNo="0" devices="tripinfo_8" vType="DEFAULT_VEHTYPE" speedFactor="1.05" vaporized=""/>
    <tripinfo id="88" depart="96.00" departLane="105681660#12_0" departPos="5.10" departSpeed="0.00" departDelay="0.00" arrival="207.00" arrivalLane="918280984_0" arrivalPos="38.78" arrivalSpeed="13.68" duration="111.00" routeLength="1405.13" waitingTime="3.00" waitingCount="2" stopTime="0.00" timeLoss="29.80" rerouteNo="0" devices="tripinfo_88" vType="DEFAULT_VEHTYPE" speedFactor="1.00" vaporized=""/>
    <tripinfo id="60" depart="71.00" departLane="318908683#0_0" departPos="5.10" departSpeed="0.00" departDelay="0.00" arrival="210.00" arrivalLane="-597602756#0_0" arrivalPos="325.99" arrivalSpeed="22.11" duration="139.00" routeLength="1401.85" waitingTime="48.00" waitingCount="1" stopTime="0.00" timeLoss="74.78" rerouteNo="0" devices="tripinfo_60" vType="DEFAULT_VEHTYPE" speedFactor="1.02" vaporized=""/>
    <tripinfo id="119" depart="138.00" departLane="105681660#12_0" departPos="5.10" departSpeed="0.00" departDelay="0.00" arrival="212.00" arrivalLane="-597602753#1_0" arrivalPos="143.59" arrivalSpeed="21.54" duration="74.00" routeLength="1380.56" waitingTime="0.00" waitingCount="0" stopTime="0.00" timeLoss="10.97" rerouteNo="0" devices="tripinfo_119" vType="DEFAULT_VEHTYPE" speedFactor="1.00" vaporized=""/>
    <tripinfo id="16" depart="16.00" departLane="105681660#12_0" departPos="5.10" departSpeed="0.00" departDelay="0.00" arrival="213.00" arrivalLane="260998164#0_0" arrivalPos="257.55" arrivalSpeed="26.87" duration="197.00" routeLength="2772.07" waitingTime="17.00" waitingCount="3" stopTime="0.00" timeLoss="65.31" rerouteNo="0" devices="tripinfo_16" vType="DEFAULT_VEHTYPE" speedFactor="0.99" vaporized=""/>
    <tripinfo id="50" depart="60.00" departLane="-260998164#3_0" departPos="5.10" departSpeed="0.00" departDelay="0.00" arrival="214.00" arrivalLane="15374898#0-AddedOffRampEdge_0" arrivalPos="100.00" arrivalSpeed="23.93" duration="154.00" routeLength="1332.80" waitingTime="83.00" waitingCount="1" stopTime="0.00" timeLoss="99.28" rerouteNo="0" devices="tripinfo_50" vType="DEFAULT_VEHTYPE" speedFactor="0.88" vaporized=""/>
    <tripinfo id="54" depart="64.00" departLane="-260998164#3_0" departPos="5.10" departSpeed="0.00" departDelay="0.00" arrival="214.00" arrivalLane="15374898#0-AddedOffRampEdge_1" arrivalPos="100.00" arrivalSpeed="27.34" duration="150.00" routeLength="1332.80" waitingTime="81.00" waitingCount="1" stopTime="0.00" timeLoss="101.86" rerouteNo="0" devices="tripinfo_54" vType="DEFAULT_VEHTYPE" speedFactor="1.02" vaporized=""/>
    <tripinfo id="89" depart="97.00" departLane="422688973_0" departPos="5.10" departSpeed="0.00" departDelay="0.00" arrival="214.00" arrivalLane="260998164#0_0" arrivalPos="257.55" arrivalSpeed="28.06" duration="117.00" routeLength="1470.06" waitingTime="31.00" waitingCount="1" stopTime="0.00" timeLoss="64.99" rerouteNo="0" devices="tripinfo_89" vType="DEFAULT_VEHTYPE" speedFactor="1.04" vaporized=""/>
    <tripinfo id="92" depart="103.00" departLane="-260998164#3_0" departPos="5.10" departSpeed="0.00" departDelay="0.00" arrival="216.00" arrivalLane="15374898#0-AddedOffRampEdge_1" arrivalPos="100.00" arrivalSpeed="28.03" duration="113.00" routeLength="1332.80" waitingTime="47.00" waitingCount="1" stopTime="0.00" timeLoss="65.36" rerouteNo="0" devices="tripinfo_92" vType="DEFAULT_VEHTYPE" speedFactor="1.02" vaporized=""/>
    <tripinfo id="121" depart="140.00" departLane="-260998164#3_0" departPos="5.10" departSpeed="0.00" departDelay="0.00" arrival="217.00" arrivalLane="15374898#0-AddedOffRampEdge_1" arrivalPos="100.00" arrivalSpeed="29.62" duration="77.00" routeLength="1332.80" waitingTime="11.00" waitingCount="1" stopTime="0.00" timeLoss="32.18" rerouteNo="0" devices="tripinfo_121" vType="DEFAULT_VEHTYPE" speedFactor="1.07" vaporized=""/>
    <tripinfo id="96" depart="134.00" departLane="318908683#0_0" departPos="5.10" departSpeed="0.00" departDelay="26.00" arrival="220.00" arrivalLane="422688976#1_1" arrivalPos="294.40" arrivalSpeed="29.78" duration="86.00" routeLength="940.85" waitingTime="31.00" waitingCount="1" stopTime="0.00" timeLoss="52.64" rerouteNo="0" devices="tripinfo_96" vType="DEFAULT_VEHTYPE" speedFactor="1.09" vaporized=""/>
    <tripinfo id="25" depart="27.00" departLane="597602756#0_0" departPos="5.10" departSpeed="0.00" departDelay="0.00" arrival="221.00" arrivalLane="422688976#1_0" arrivalPos="294.40" arrivalSpeed="24.52" duration="194.00" routeLength="2130.27" waitingTime="46.00" waitingCount="2" stopTime="0.00" timeLoss="81.96" rerouteNo="0" devices="tripinfo_25" vType="DEFAULT_VEHTYPE" speedFactor="0.89" vaporized=""/>
    <tripinfo id="74" depart="84.00" departLane="318908683#0_0" departPos="5.10" departSpeed="0.00" departDelay="2.00" arrival="222.00" arrivalLane="422688976#1_1" arrivalPos="294.40" arrivalSpeed="24.89" duration="138.00" routeLength="940.85" waitingTime="76.00" waitingCount="2" stopTime="0.00" timeLoss="98.56" rerouteNo="0" devices="tripinfo_74" vType="DEFAULT_VEHTYPE" speedFactor="0.94" vaporized=""/>
    <tripinfo id="108" depart="119.00" departLane="-260998164#3_0" departPos="5.10" departSpeed="0.00" departDelay="2.00" arrival="222.00" arrivalLane="-318908683#1_0" arrivalPos="71.22" arrivalSpeed="13.54" duration="103.00" routeLength="955.07" waitingTime="49.00" waitingCount="1" stopTime="0.00" timeLoss="64.60" rerouteNo="0" devices="tripinfo_108" vType="DEFAULT_VEHTYPE" speedFactor="1.01" vaporized=""/>
    <tripinfo id="65" depart="74.00" departLane="105681660#12_0" departPos="5.10" departSpeed="0.00" departDelay="1.00" arrival="223.00" arrivalLane="422688976#1_2" arrivalPos="294.40" arrivalSpeed="27.38" duration="149.00" routeLength="2020.13" waitingTime="27.00" waitingCount="2" stopTime="0.00" timeLoss="61.43" rerouteNo="0" devices="tripinfo_65" vType="DEFAULT_VEHTYPE" speedFactor="0.99" vaporized=""/>
    <tripinfo id="31" depart="36.00" departLane="422688973_0" departPos="5.10" departSpeed="0.00" departDelay="0.00" arrival="224.00" arrivalLane="-597602753#1_0" arrivalPos="143.59" arrivalSpeed="19.66" duration="188.00" routeLength="1114.81" waitingTime="96.00" waitingCount="3" stopTime="0.00" timeLoss="118.23" rerouteNo="0" devices="tripinfo_31" vType="DEFAULT_VEHTYPE" speedFactor="0.93" vaporized=""/>
    <tripinfo id="68" depart="78.00" departLane="318908683#0_0" departPos="5.10" departSpeed="0.00" departDelay="2.00" arrival="224.00" arrivalLane="-597602756#0_0" arrivalPos="325.99" arrivalSpeed="20.13" duration="146.00" routeLength="1401.85" waitingTime="46.00" waitingCount="2" stopTime="0.00" timeLoss="73.27" rerouteNo="0" devices="tripinfo_68" vType="DEFAULT_VEHTYPE" speedFactor="0.91" vaporized=""/>