<?xml version="1.0" encoding="UTF-8"?>

<!-- generated on 2023-04-23 19:03:57 by Eclipse SUMO sumo Version 1.16.0
<configuration xmlns:xsi="http://www.w3.org/2001/XMLSchema-instance" xsi:noNamespaceSchemaLocation="http://sumo.dlr.de/xsd/sumoConfiguration.xsd">

    <input>
        <net-file value="006/../configurations/maps/4corners_neighborhoods.net.xml"/>
        <route-files value="006/Trips_File_006.rou.xml"/>
        <additional-files value="006/../edgedata.add.xml"/>
    </input>

    <output>
        <output-prefix value="006/"/>
        <summary-output value="006/../summary_006.xml"/>
        <tripinfo-output value="006/../tripinfo_006.xml"/>
    </output>

    <time>
        <begin value="0"/>
    </time>

    <processing>
        <route-steps value="200"/>
        <no-internal-links value="False"/>
        <time-to-teleport value="300"/>
        <time-to-teleport.highways value="0"/>
        <eager-insert value="False"/>
    </processing>

    <report>
        <verbose value="true"/>
        <no-warnings value="False"/>
        <log value="006/../iteration_006.sumo.log"/>
        <no-step-log value="true"/>
    </report>

    <mesoscopic>
        <mesosim value="true"/>
        <meso-recheck value="0"/>
    </mesoscopic>

    <random_number>
        <random value="False"/>
    </random_number>

</configuration>
-->

<tripinfos xmlns:xsi="http://www.w3.org/2001/XMLSchema-instance" xsi:noNamespaceSchemaLocation="http://sumo.dlr.de/xsd/tripinfo_file.xsd">
    <tripinfo id="15" depart="10.00" departLane="" departPos="0.00" departSpeed="31.19" departDelay="0.00" arrival="32.00" arrivalLane="" arrivalPos="71.22" arrivalSpeed="15.60" duration="22.00" routeLength="612.32" waitingTime="0.00" waitingCount="0" stopTime="0.00" timeLoss="0.00" rerouteNo="0" devices="tripinfo_15" vType="DEFAULT_VEHTYPE" speedFactor="1.12" vaporized=""/>
    <tripinfo id="14" depart="10.00" departLane="" departPos="0.00" departSpeed="14.54" departDelay="0.00" arrival="35.00" arrivalLane="" arrivalPos="38.78" arrivalSpeed="14.54" duration="25.00" routeLength="594.71" waitingTime="0.00" waitingCount="0" stopTime="0.00" timeLoss="0.00" rerouteNo="0" devices="tripinfo_14" vType="DEFAULT_VEHTYPE" speedFactor="1.05" vaporized=""/>
    <tripinfo id="3" depart="0.00" departLane="" departPos="0.00" departSpeed="13.03" departDelay="0.00" arrival="36.00" arrivalLane="" arrivalPos="294.40" arrivalSpeed="26.06" duration="36.00" routeLength="850.33" waitingTime="0.00" waitingCount="0" stopTime="0.00" timeLoss="0.00" rerouteNo="0" devices="tripinfo_3" vType="DEFAULT_VEHTYPE" speedFactor="0.94" vaporized=""/>
    <tripinfo id="13" depart="10.00" departLane="" departPos="0.00" departSpeed="28.51" departDelay="0.00" arrival="43.00" arrivalLane="" arrivalPos="71.22" arrivalSpeed="14.26" duration="33.00" routeLength="848.93" waitingTime="0.00" waitingCount="0" stopTime="0.00" timeLoss="0.00" rerouteNo="0" devices="tripinfo_13" vType="DEFAULT_VEHTYPE" speedFactor="1.03" vaporized=""/>
    <tripinfo id="33" depart="24.00" departLane="" departPos="0.00" departSpeed="16.03" departDelay="0.00" arrival="48.00" arrivalLane="" arrivalPos="71.22" arrivalSpeed="16.03" duration="24.00" routeLength="617.84" waitingTime="0.00" waitingCount="0" stopTime="0.00" timeLoss="0.11" rerouteNo="0" devices="tripinfo_33" vType="DEFAULT_VEHTYPE" speedFactor="1.15" vaporized=""/>
    <tripinfo id="35" depart="26.00" departLane="" departPos="0.00" departSpeed="16.28" departDelay="0.00" arrival="48.00" arrivalLane="" arrivalPos="38.78" arrivalSpeed="16.27" duration="22.00" routeLength="594.71" waitingTime="0.00" waitingCount="0" stopTime="0.00" timeLoss="0.00" rerouteNo="0" devices="tripinfo_35" vType="DEFAULT_VEHTYPE" speedFactor="1.17" vaporized=""/>
    <tripinfo id="6" depart="2.00" departLane="" departPos="0.00" departSpeed="14.31" departDelay="0.00" arrival="60.00" arrivalLane="" arrivalPos="143.59" arrivalSpeed="22.89" duration="58.00" routeLength="1015.95" waitingTime="0.00" waitingCount="0" stopTime="0.00" timeLoss="0.00" rerouteNo="0" devices="tripinfo_6" vType="DEFAULT_VEHTYPE" speedFactor="1.03" vaporized=""/>
    <tripinfo id="29" depart="21.00" departLane="" departPos="0.00" departSpeed="26.36" departDelay="0.00" arrival="60.00" arrivalLane="" arrivalPos="38.78" arrivalSpeed="13.18" duration="39.00" routeLength="969.47" waitingTime="0.00" waitingCount="0" stopTime="0.00" timeLoss="0.00" rerouteNo="0" devices="tripinfo_29" vType="DEFAULT_VEHTYPE" speedFactor="0.95" vaporized=""/>
    <tripinfo id="2" depart="0.00" departLane="" departPos="0.00" departSpeed="23.55" departDelay="0.00" arrival="61.00" arrivalLane="" arrivalPos="71.22" arrivalSpeed="14.72" duration="61.00" routeLength="1246.20" waitingTime="0.00" waitingCount="0" stopTime="0.00" timeLoss="0.00" rerouteNo="0" devices="tripinfo_2" vType="DEFAULT_VEHTYPE" speedFactor="1.06" vaporized=""/>
    <tripinfo id="26" depart="19.00" departLane="" departPos="0.00" departSpeed="22.94" departDelay="0.00" arrival="61.00" arrivalLane="" arrivalPos="100.00" arrivalSpeed="22.94" duration="42.00" routeLength="952.53" waitingTime="0.00" waitingCount="0" stopTime="0.00" timeLoss="0.00" rerouteNo="0" devices="tripinfo_26" vType="DEFAULT_VEHTYPE" speedFactor="0.83" vaporized=""/>
    <tripinfo id="44" depart="40.00" departLane="" departPos="0.00" departSpeed="15.17" departDelay="0.00" arrival="65.00" arrivalLane="" arrivalPos="38.78" arrivalSpeed="15.17" duration="25.00" routeLength="594.71" waitingTime="0.00" waitingCount="0" stopTime="0.00" timeLoss="1.22" rerouteNo="0" devices="tripinfo_44" vType="DEFAULT_VEHTYPE" speedFactor="1.09" vaporized=""/>
    <tripinfo id="21" depart="14.00" departLane="" departPos="0.00" departSpeed="32.17" departDelay="0.00" arrival="67.00" arrivalLane="" arrivalPos="294.40" arrivalSpeed="32.17" duration="53.00" routeLength="1556.98" waitingTime="0.87" waitingCount="0" stopTime="0.00" timeLoss="4.52" rerouteNo="0" devices="tripinfo_21" vType="DEFAULT_VEHTYPE" speedFactor="1.16" vaporized=""/>
    <tripinfo id="18" depart="12.00" departLane="" departPos="0.00" departSpeed="12.20" departDelay="0.00" arrival="70.00" arrivalLane="" arrivalPos="143.59" arrivalSpeed="19.52" duration="58.00" routeLength="1084.30" waitingTime="0.00" waitingCount="0" stopTime="0.00" timeLoss="0.00" rerouteNo="0" devices="tripinfo_18" vType="DEFAULT_VEHTYPE" speedFactor="0.88" vaporized=""/>
    <tripinfo id="31" depart="22.00" departLane="" departPos="0.00" departSpeed="25.87" departDelay="0.00" arrival="70.00" arrivalLane="" arrivalPos="294.40" arrivalSpeed="25.87" duration="48.00" routeLength="1225.09" waitingTime="0.24" waitingCount="0" stopTime="0.00" timeLoss="0.24" rerouteNo="0" devices="tripinfo_31" vType="DEFAULT_VEHTYPE" speedFactor="0.93" vaporized=""/>
    <tripinfo id="41" depart="36.00" departLane="" departPos="0.00" departSpeed="12.51" departDelay="0.00" arrival="74.00" arrivalLane="" arrivalPos="294.40" arrivalSpeed="25.02" duration="38.00" routeLength="850.33" waitingTime="1.00" waitingCount="0" stopTime="0.00" timeLoss="1.00" rerouteNo="0" devices="tripinfo_41" vType="DEFAULT_VEHTYPE" speedFactor="0.90" vaporized=""/>
    <tripinfo id="8" depart="4.00" departLane="" departPos="0.00" departSpeed="23.24" departDelay="0.00" arrival="76.00" arrivalLane="" arrivalPos="100.00" arrivalSpeed="29.05" duration="72.00" routeLength="1606.44" waitingTime="0.00" waitingCount="0" stopTime="0.00" timeLoss="0.00" rerouteNo="0" devices="tripinfo_8" vType="DEFAULT_VEHTYPE" speedFactor="1.05" vaporized=""/>
    <tripinfo id="45" depart="43.00" departLane="" departPos="0.00" departSpeed="14.41" departDelay="0.00" arrival="76.00" arrivalLane="" arrivalPos="257.55" arrivalSpeed="28.83" duration="33.00" routeLength="854.05" waitingTime="0.00" waitingCount="0" stopTime="0.00" timeLoss="0.00" rerouteNo="0" devices="tripinfo_45" vType="DEFAULT_VEHTYPE" speedFactor="1.04" vaporized=""/>
    <tripinfo id="7" depart="4.00" departLane="" departPos="0.00" departSpeed="23.08" departDelay="0.00" arrival="78.00" arrivalLane="" arrivalPos="143.59" arrivalSpeed="18.46" duration="74.00" routeLength="1459.06" waitingTime="0.00" waitingCount="0" stopTime="0.00" timeLoss="0.00" rerouteNo="0" devices="tripinfo_7" vType="DEFAULT_VEHTYPE" speedFactor="0.83" vaporized=""/>
    <tripinfo id="43" depart="39.00" departLane="" departPos="0.00" departSpeed="26.59" departDelay="0.00" arrival="78.00" arrivalLane="" arrivalPos="38.78" arrivalSpeed="13.29" duration="39.00" routeLength="969.47" waitingTime="0.00" waitingCount="0" stopTime="0.00" timeLoss="1.02" rerouteNo="0" devices="tripinfo_43" vType="DEFAULT_VEHTYPE" speedFactor="0.96" vaporized=""/>
    <tripinfo id="49" depart="51.00" departLane="" departPos="0.00" departSpeed="25.01" departDelay="0.00" arrival="79.00" arrivalLane="" arrivalPos="71.22" arrivalSpeed="12.51" duration="28.00" routeLength="612.32" waitingTime="0.00" waitingCount="0" stopTime="0.00" timeLoss="0.00" rerouteNo="0" devices="tripinfo_49" vType="DEFAULT_VEHTYPE" speedFactor="0.90" vaporized=""/>
    <tripinfo id="23" depart="16.00" departLane="" departPos="0.00" departSpeed="28.06" departDelay="0.00" arrival="80.00" arrivalLane="" arrivalPos="325.99" arrivalSpeed="22.45" duration="64.00" routeLength="1146.34" waitingTime="0.00" waitingCount="0" stopTime="0.00" timeLoss="0.00" rerouteNo="0" devices="tripinfo_23" vType="DEFAULT_VEHTYPE" speedFactor="1.01" vaporized=""/>
    <tripinfo id="51" depart="52.00" departLane="" departPos="0.00" departSpeed="23.62" departDelay="0.00" arrival="81.00" arrivalLane="" arrivalPos="71.22" arrivalSpeed="11.81" duration="29.00" routeLength="612.32" waitingTime="0.00" waitingCount="0" stopTime="0.00" timeLoss="0.00" rerouteNo="0" devices="tripinfo_51" vType="DEFAULT_VEHTYPE" speedFactor="0.85" vaporized=""/>
    <tripinfo id="5" depart="2.00" departLane="" departPos="0.00" departSpeed="20.92" departDelay="0.00" arrival="83.00" arrivalLane="" arrivalPos="71.22" arrivalSpeed="11.81" duration="81.00" routeLength="1426.73" waitingTime="3.06" waitingCount="0" stopTime="0.00" timeLoss="13.40" rerouteNo="0" devices="tripinfo_5" vType="DEFAULT_VEHTYPE" speedFactor="1.08" vaporized=""/>
    <tripinfo id="24" depart="17.00" departLane="" departPos="0.00" departSpeed="21.66" departDelay="0.00" arrival="83.00" arrivalLane="" arrivalPos="257.55" arrivalSpeed="27.08" duration="66.00" routeLength="1144.15" waitingTime="0.00" waitingCount="0" stopTime="0.00" timeLoss="0.00" rerouteNo="0" devices="tripinfo_24" vType="DEFAULT_VEHTYPE" speedFactor="0.97" vaporized=""/>
    <tripinfo id="30" depart="22.00" departLane="" departPos="0.00" departSpeed="15.72" departDelay="0.00" arrival="83.00" arrivalLane="" arrivalPos="806.12" arrivalSpeed="25.15" duration="61.00" routeLength="1363.89" waitingTime="0.00" waitingCount="0" stopTime="0.00" timeLoss="5.10" rerouteNo="0" devices="tripinfo_30" vType="DEFAULT_VEHTYPE" speedFactor="1.13" vaporized=""/>
    <tripinfo id="16" depart="11.00" departLane="" departPos="0.00" departSpeed="22.02" departDelay="0.00" arrival="85.00" arrivalLane="" arrivalPos="143.59" arrivalSpeed="22.02" duration="74.00" routeLength="1532.30" waitingTime="0.00" waitingCount="0" stopTime="0.00" timeLoss="3.54" rerouteNo="0" devices="tripinfo_16" vType="DEFAULT_VEHTYPE" speedFactor="0.99" vaporized=""/>
    <tripinfo id="32" depart="24.00" departLane="" departPos="0.00" departSpeed="32.74" departDelay="0.00" arrival="85.00" arrivalLane="" arrivalPos="806.12" arrivalSpeed="25.15" duration="61.00" routeLength="1290.02" waitingTime="0.00" waitingCount="0" stopTime="0.00" timeLoss="0.95" rerouteNo="0" devices="tripinfo_32" vType="DEFAULT_VEHTYPE" speedFactor="1.18" vaporized=""/>
    <tripinfo id="11" depart="7.00" departLane="" departPos="0.00" departSpeed="19.04" departDelay="0.00" arrival="88.00" arrivalLane="" arrivalPos="294.40" arrivalSpeed="23.80" duration="81.00" routeLength="1673.77" waitingTime="0.00" waitingCount="0" stopTime="0.00" timeLoss="0.00" rerouteNo="0" devices="tripinfo_11" vType="DEFAULT_VEHTYPE" speedFactor="0.86" vaporized=""/>
    <tripinfo id="12" depart="8.00" departLane="" departPos="0.00" departSpeed="21.41" departDelay="0.00" arrival="88.00" arrivalLane="" arrivalPos="294.40" arrivalSpeed="30.30" duration="80.00" routeLength="1887.77" waitingTime="0.00" waitingCount="0" stopTime="0.00" timeLoss="7.87" rerouteNo="0" devices="tripinfo_12" vType="DEFAULT_VEHTYPE" speedFactor="1.09" vaporized=""/>
    <tripinfo id="9" depart="4.00" departLane="" departPos="0.00" departSpeed="17.70" departDelay="0.00" arrival="90.00" arrivalLane="" arrivalPos="100.00" arrivalSpeed="24.61" duration="86.00" routeLength="1606.44" waitingTime="0.00" waitingCount="0" stopTime="0.00" timeLoss="0.62" rerouteNo="0" devices="tripinfo_9" vType="DEFAULT_VEHTYPE" speedFactor="0.89" vaporized=""/>
    <tripinfo id="4" depart="1.00" departLane="" departPos="0.00" departSpeed="22.45" departDelay="0.00" arrival="91.00" arrivalLane="" arrivalPos="100.00" arrivalSpeed="24.61" duration="90.00" routeLength="1786.97" waitingTime="1.48" waitingCount="0" stopTime="0.00" timeLoss="6.71" rerouteNo="0" devices="tripinfo_4" vType="DEFAULT_VEHTYPE" speedFactor="1.01" vaporized=""/>
    <tripinfo id="10" depart="6.00" departLane="" departPos="0.00" departSpeed="19.38" departDelay="0.00" arrival="92.00" arrivalLane="" arrivalPos="100.00" arrivalSpeed="26.05" duration="86.00" routeLength="1606.44" waitingTime="1.87" waitingCount="0" stopTime="0.00" timeLoss="5.25" rerouteNo="0" devices="tripinfo_10" vType="DEFAULT_VEHTYPE" speedFactor="0.94" vaporized=""/>
    <tripinfo id="19" depart="13.00" departLane="" departPos="0.00" departSpeed="26.15" departDelay="0.00" arrival="92.00" arrivalLane="" arrivalPos="325.99" arrivalSpeed="20.92" duration="79.00" routeLength="1770.21" waitingTime="0.00" waitingCount="0" stopTime="0.00" timeLoss="0.00" rerouteNo="0" devices="tripinfo_19" vType="DEFAULT_VEHTYPE" speedFactor="0.94" vaporized=""/>
    <tripinfo id="22" depart="15.00" departLane="" departPos="0.00" departSpeed="28.28" departDelay="0.00" arrival="94.00" arrivalLane="" arrivalPos="325.99" arrivalSpeed="20.92" duration="79.00" routeLength="1770.21" waitingTime="0.90" waitingCount="0" stopTime="0.00" timeLoss="5.41" rerouteNo="0" devices="tripinfo_22" vType="DEFAULT_VEHTYPE" speedFactor="1.02" vaporized=""/>
    <tripinfo id="58" depart="57.00" departLane="" departPos="0.00" departSpeed="12.49" departDelay="0.00" arrival="95.00" arrivalLane="" arrivalPos="257.55" arrivalSpeed="24.97" duration="38.00" routeLength="854.05" waitingTime="0.00" waitingCount="0" stopTime="0.00" timeLoss="0.00" rerouteNo="0" devices="tripinfo_58" vType="DEFAULT_VEHTYPE" speedFactor="0.90" vaporized=""/>
    <tripinfo id="69" depart="69.00" departLane="" departPos="0.00" departSpeed="25.41" departDelay="0.00" arrival="97.00" arrivalLane="" arrivalPos="71.22" arrivalSpeed="12.70" duration="28.00" routeLength="612.32" waitingTime="0.00" waitingCount="0" stopTime="0.00" timeLoss="0.40" rerouteNo="0" devices="tripinfo_69" vType="DEFAULT_VEHTYPE" speedFactor="0.91" vaporized=""/>
    <tripinfo id="25" depart="19.00" departLane="" departPos="0.00" departSpeed="19.77" departDelay="0.00" arrival="98.00" arrivalLane="" arrivalPos="294.40" arrivalSpeed="24.71" duration="79.00" routeLength="1673.77" waitingTime="1.01" waitingCount="0" stopTime="0.00" timeLoss="1.01" rerouteNo="0" devices="tripinfo_25" vType="DEFAULT_VEHTYPE" speedFactor="0.89" vaporized=""/>
    <tripinfo id="36" depart="30.00" departLane="" departPos="0.00" departSpeed="27.63" departDelay="0.00" arrival="102.00" arrivalLane="" arrivalPos="325.99" arrivalSpeed="22.10" duration="72.00" routeLength="1674.93" waitingTime="0.00" waitingCount="0" stopTime="0.00" timeLoss="0.00" rerouteNo="0" devices="tripinfo_36" vType="DEFAULT_VEHTYPE" speedFactor="0.99" vaporized=""/>
    <tripinfo id="17" depart="11.00" departLane="" departPos="0.00" departSpeed="25.17" departDelay="0.00" arrival="104.00" arrivalLane="" arrivalPos="806.12" arrivalSpeed="20.59" duration="93.00" routeLength="2070.54" waitingTime="0.00" waitingCount="0" stopTime="0.00" timeLoss="0.08" rerouteNo="0" devices="tripinfo_17" vType="DEFAULT_VEHTYPE" speedFactor="0.93" vaporized=""/>
    <tripinfo id="39" depart="35.00" departLane="" departPos="0.00" departSpeed="26.21" departDelay="0.00" arrival="104.00" arrivalLane="" arrivalPos="294.40" arrivalSpeed="32.77" duration="69.00" routeLength="1950.74" waitingTime="0.00" waitingCount="0" stopTime="0.00" timeLoss="0.00" rerouteNo="0" devices="tripinfo_39" vType="DEFAULT_VEHTYPE" speedFactor="1.18" vaporized=""/>
    <tripinfo id="27" depart="21.00" departLane="" departPos="0.00" departSpeed="24.24" departDelay="0.00" arrival="105.00" arrivalLane="" arrivalPos="143.59" arrivalSpeed="19.39" duration="84.00" routeLength="1790.95" waitingTime="0.00" waitingCount="0" stopTime="0.00" timeLoss="0.00" rerouteNo="0" devices="tripinfo_27" vType="DEFAULT_VEHTYPE" speedFactor="0.87" vaporized=""/>
    <tripinfo id="37" depart="31.00" departLane="" departPos="0.00" departSpeed="22.66" departDelay="0.00" arrival="105.00" arrivalLane="" arrivalPos="100.00" arrivalSpeed="28.33" duration="74.00" routeLength="1606.44" waitingTime="0.00" waitingCount="0" stopTime="0.00" timeLoss="0.00" rerouteNo="0" devices="tripinfo_37" vType="DEFAULT_VEHTYPE" speedFactor="1.02" vaporized=""/>
    <tripinfo id="47" depart="48.00" departLane="" departPos="0.00" departSpeed="24.17" departDelay="0.00" arrival="105.00" arrivalLane="" arrivalPos="806.12" arrivalSpeed="20.59" duration="57.00" routeLength="1333.25" waitingTime="0.00" waitingCount="0" stopTime="0.00" timeLoss="1.82" rerouteNo="0" devices="tripinfo_47" vType="DEFAULT_VEHTYPE" speedFactor="1.09" vaporized=""/>
    <tripinfo id="63" depart="65.00" departLane="" departPos="0.00" departSpeed="31.09" departDelay="0.00" arrival="105.00" arrivalLane="" arrivalPos="257.55" arrivalSpeed="31.09" duration="40.00" routeLength="1228.81" waitingTime="0.00" waitingCount="0" stopTime="0.00" timeLoss="0.00" rerouteNo="0" devices="tripinfo_63" vType="DEFAULT_VEHTYPE" speedFactor="1.12" vaporized=""/>
    <tripinfo id="40" depart="36.00" departLane="" departPos="0.00" departSpeed="24.49" departDelay="0.00" arrival="107.00" arrivalLane="" arrivalPos="143.59" arrivalSpeed="19.39" duration="71.00" routeLength="1532.30" waitingTime="0.57" waitingCount="0" stopTime="0.00" timeLoss="7.65" rerouteNo="0" devices="tripinfo_40" vType="DEFAULT_VEHTYPE" speedFactor="1.10" vaporized=""/>
    <tripinfo id="46" depart="47.00" departLane="" departPos="0.00" departSpeed="14.49" departDelay="0.00" arrival="108.00" arrivalLane="" arrivalPos="143.59" arrivalSpeed="19.39" duration="61.00" routeLength="1015.95" waitingTime="0.00" waitingCount="0" stopTime="0.00" timeLoss="4.20" rerouteNo="0" devices="tripinfo_46" vType="DEFAULT_VEHTYPE" speedFactor="1.04" vaporized=""/>
    <tripinfo id="67" depart="68.00" departLane="" departPos="0.00" departSpeed="24.51" departDelay="0.00" arrival="108.00" arrivalLane="" arrivalPos="100.00" arrivalSpeed="24.51" duration="40.00" routeLength="952.53" waitingTime="0.33" waitingCount="0" stopTime="0.00" timeLoss="0.33" rerouteNo="0" devices="tripinfo_67" vType="DEFAULT_VEHTYPE" speedFactor="0.88" vaporized=""/>
    <tripinfo id="34" depart="25.00" departLane="" departPos="0.00" departSpeed="22.33" departDelay="0.00" arrival="109.00" arrivalLane="" arrivalPos="100.00" arrivalSpeed="26.60" duration="84.00" routeLength="1786.97" waitingTime="0.00" waitingCount="0" stopTime="0.00" timeLoss="0.50" rerouteNo="0" devices="tripinfo_34" vType="DEFAULT_VEHTYPE" speedFactor="1.01" vaporized=""/>
    <tripinfo id="42" depart="37.00" departLane="" departPos="0.00" departSpeed="22.89" departDelay="0.00" arrival="109.00" arrivalLane="" arrivalPos="71.22" arrivalSpeed="14.31" duration="72.00" routeLength="1426.73" waitingTime="0.00" waitingCount="0" stopTime="0.00" timeLoss="1.14" rerouteNo="0" devices="tripinfo_42" vType="DEFAULT_VEHTYPE" speedFactor="1.03" vaporized=""/>
    <tripinfo id="20" depart="13.00" departLane="" departPos="0.00" departSpeed="20.80" departDelay="0.00" arrival="116.00" arrivalLane="" arrivalPos="100.00" arrivalSpeed="26.01" duration="103.00" routeLength="2063.94" waitingTime="0.00" waitingCount="0" stopTime="0.00" timeLoss="0.00" rerouteNo="0" devices="tripinfo_20" vType="DEFAULT_VEHTYPE" speedFactor="0.94" vaporized=""/>
    <tripinfo id="65" depart="67.00" departLane="" departPos="0.00" departSpeed="27.41" departDelay="0.00" arrival="116.00" arrivalLane="" arrivalPos="257.55" arrivalSpeed="27.42" duration="49.00" routeLength="1324.09" waitingTime="0.00" waitingCount="0" stopTime="0.00" timeLoss="0.00" rerouteNo="0" devices="tripinfo_65" vType="DEFAULT_VEHTYPE" speedFactor="0.99" vaporized=""/>
    <tripinfo id="38" depart="33.00" departLane="" departPos="0.00" departSpeed="21.62" departDelay="0.00" arrival="119.00" arrivalLane="" arrivalPos="100.00" arrivalSpeed="27.03" duration="86.00" routeLength="1786.97" waitingTime="0.00" waitingCount="0" stopTime="0.00" timeLoss="0.00" rerouteNo="0" devices="tripinfo_38" vType="DEFAULT_VEHTYPE" speedFactor="0.97" vaporized=""/>
    <tripinfo id="60" depart="60.00" departLane="" departPos="0.00" departSpeed="22.74" departDelay="0.00" arrival="119.00" arrivalLane="" arrivalPos="143.59" arrivalSpeed="22.74" duration="59.00" routeLength="1330.63" waitingTime="0.00" waitingCount="0" stopTime="0.00" timeLoss="0.00" rerouteNo="0" devices="tripinfo_60" vType="DEFAULT_VEHTYPE" speedFactor="1.02" vaporized=""/>
    <tripinfo id="53" depart="53.00" departLane="" departPos="0.00" departSpeed="32.47" departDelay="0.00" arrival="122.00" arrivalLane="" arrivalPos="325.99" arrivalSpeed="25.97" duration="69.00" routeLength="1770.21" waitingTime="0.17" waitingCount="0" stopTime="0.00" timeLoss="5.31" rerouteNo="0" devices="tripinfo_53" vType="DEFAULT_VEHTYPE" speedFactor="1.17" vaporized=""/>
    <tripinfo id="71" depart="74.00" departLane="" departPos="0.00" departSpeed="14.20" departDelay="0.00" arrival="123.00" arrivalLane="" arrivalPos="257.55" arrivalSpeed="28.39" duration="49.00" routeLength="1329.61" waitingTime="0.00" waitingCount="0" stopTime="0.00" timeLoss="0.00" rerouteNo="0" devices="tripinfo_71" vType="DEFAULT_VEHTYPE" speedFactor="1.02" vaporized=""/>
    <tripinfo id="48" depart="50.00" departLane="" departPos="0.00" departSpeed="22.16" departDelay="0.00" arrival="124.00" arrivalLane="" arrivalPos="71.22" arrivalSpeed="13.85" duration="74.00" routeLength="1426.73" waitingTime="0.56" waitingCount="0" stopTime="0.00" timeLoss="0.56" rerouteNo="0" devices="tripinfo_48" vType="DEFAULT_VEHTYPE" speedFactor="1.00" vaporized=""/>
    <tripinfo id="64" depart="65.00" departLane="" departPos="0.00" departSpeed="14.11" departDelay="0.00" arrival="124.00" arrivalLane="" arrivalPos="143.59" arrivalSpeed="22.57" duration="59.00" routeLength="1015.95" waitingTime="0.00" waitingCount="0" stopTime="0.00" timeLoss="0.00" rerouteNo="0" devices="tripinfo_64" vType="DEFAULT_VEHTYPE" speedFactor="1.02" vaporized=""/>
    <tripinfo id="28" depart="21.00" departLane="" departPos="0.00" departSpeed="20.38" departDelay="0.00" arrival="127.00" arrivalLane="" arrivalPos="257.55" arrivalSpeed="25.48" duration="106.00" routeLength="2030.30" waitingTime="2.30" waitingCount="0" stopTime="0.00" timeLoss="2.30" rerouteNo="0" devices="tripinfo_28" vType="DEFAULT_VEHTYPE" speedFactor="0.92" vaporized=""/>
    <tripinfo id="57" depart="57.00" departLane="" departPos="0.00" departSpeed="22.13" departDelay="0.00" arrival="127.00" arrivalLane="" arrivalPos="294.40" arrivalSpeed="27.67" duration="70.00" routeLength="1673.77" waitingTime="0.00" waitingCount="0" stopTime="0.00" timeLoss="0.00" rerouteNo="0" devices="tripinfo_57" vType="DEFAULT_VEHTYPE" speedFactor="1.00" vaporized=""/>
    <tripinfo id="85" depart="90.00" departLane="" departPos="0.00" departSpeed="12.26" departDelay="0.00" arrival="128.00" arrivalLane="" arrivalPos="257.55" arrivalSpeed="25.48" duration="38.00" routeLength="854.05" waitingTime="1.50" waitingCount="0" stopTime="0.00" timeLoss="3.20" rerouteNo="0" devices="tripinfo_85" vType="DEFAULT_VEHTYPE" speedFactor="0.97" vaporized=""/>
    <tripinfo id="62" depart="64.00" departLane="" departPos="0.00" departSpeed="30.07" departDelay="0.00" arrival="132.00" arrivalLane="" arrivalPos="143.59" arrivalSpeed="24.05" duration="68.00" routeLength="1790.95" waitingTime="0.00" waitingCount="0" stopTime="0.00" timeLoss="0.02" rerouteNo="0" devices="tripinfo_62" vType="DEFAULT_VEHTYPE" speedFactor="1.08" vaporized=""/>
    <tripinfo id="79" depart="81.00" departLane="" departPos="0.00" departSpeed="13.64" departDelay="0.00" arrival="132.00" arrivalLane="" arrivalPos="257.55" arrivalSpeed="27.28" duration="51.00" routeLength="1329.61" waitingTime="0.00" waitingCount="0" stopTime="0.00" timeLoss="0.00" rerouteNo="0" devices="tripinfo_79" vType="DEFAULT_VEHTYPE" speedFactor="0.98" vaporized=""/>
    <tripinfo id="103" depart="106.00" departLane="" departPos="0.00" departSpeed="26.58" departDelay="0.00" arrival="132.00" arrivalLane="" arrivalPos="71.22" arrivalSpeed="13.29" duration="26.00" routeLength="612.32" waitingTime="0.00" waitingCount="0" stopTime="0.00" timeLoss="0.00" rerouteNo="0" devices="tripinfo_103" vType="DEFAULT_VEHTYPE" speedFactor="0.96" vaporized=""/>
    <tripinfo id="56" depart="57.00" departLane="" departPos="0.00" departSpeed="13.93" departDelay="0.00" arrival="133.00" arrivalLane="" arrivalPos="325.99" arrivalSpeed="22.29" duration="76.00" routeLength="1775.73" waitingTime="0.00" waitingCount="0" stopTime="0.00" timeLoss="0.00" rerouteNo="0" devices="tripinfo_56" vType="DEFAULT_VEHTYPE" speedFactor="1.00" vaporized=""/>
    <tripinfo id="55" depart="55.00" departLane="" departPos="0.00" departSpeed="20.94" departDelay="0.00" arrival="134.00" arrivalLane="" arrivalPos="100.00" arrivalSpeed="30.44" duration="79.00" routeLength="1606.44" waitingTime="0.26" waitingCount="0" stopTime="0.00" timeLoss="10.20" rerouteNo="0" devices="tripinfo_55" vType="DEFAULT_VEHTYPE" speedFactor="1.10" vaporized=""/>
    <tripinfo id="59" depart="57.00" departLane="" departPos="0.00" departSpeed="9.30" departDelay="0.00" arrival="135.00" arrivalLane="" arrivalPos="325.99" arrivalSpeed="22.29" duration="78.00" routeLength="1775.73" waitingTime="0.97" waitingCount="0" stopTime="0.00" timeLoss="10.72" rerouteNo="0" devices="tripinfo_59" vType="DEFAULT_VEHTYPE" speedFactor="1.14" vaporized=""/>
    <tripinfo id="70" depart="72.00" departLane="" departPos="0.00" departSpeed="23.11" departDelay="0.00" arrival="135.00" arrivalLane="" arrivalPos="38.78" arrivalSpeed="14.44" duration="63.00" routeLength="1418.15" waitingTime="0.00" waitingCount="0" stopTime="0.00" timeLoss="4.18" rerouteNo="0" devices="tripinfo_70" vType="DEFAULT_VEHTYPE" speedFactor="1.04" vaporized=""/>
    <tripinfo id="54" depart="53.00" departLane="" departPos="0.00" departSpeed="22.59" departDelay="0.00" arrival="136.00" arrivalLane="" arrivalPos="257.55" arrivalSpeed="28.25" duration="83.00" routeLength="1753.33" waitingTime="1.07" waitingCount="0" stopTime="0.00" timeLoss="2.06" rerouteNo="0" devices="tripinfo_54" vType="DEFAULT_VEHTYPE" speedFactor="1.02" vaporized=""/>
    <tripinfo id="83" depart="89.00" departLane="" departPos="0.00" departSpeed="13.86" departDelay="0.00" arrival="140.00" arrivalLane="" arrivalPos="143.59" arrivalSpeed="22.18" duration="51.00" routeLength="1084.30" waitingTime="0.00" waitingCount="0" stopTime="0.00" timeLoss="0.00" rerouteNo="0" devices="tripinfo_83" vType="DEFAULT_VEHTYPE" speedFactor="1.00" vaporized=""/>
    <tripinfo id="74" depart="77.00" departLane="" departPos="0.00" departSpeed="20.89" departDelay="0.00" arrival="142.00" arrivalLane="" arrivalPos="38.78" arrivalSpeed="13.06" duration="65.00" routeLength="1418.15" waitingTime="0.00" waitingCount="0" stopTime="0.00" timeLoss="0.00" rerouteNo="0" devices="tripinfo_74" vType="DEFAULT_VEHTYPE" speedFactor="0.94" vaporized=""/>
    <tripinfo id="97" depart="100.00" departLane="" departPos="0.00" departSpeed="29.36" departDelay="0.00" arrival="142.00" arrivalLane="" arrivalPos="100.00" arrivalSpeed="29.36" duration="42.00" routeLength="1209.17" waitingTime="0.00" waitingCount="0" stopTime="0.00" timeLoss="0.00" rerouteNo="0" devices="tripinfo_97" vType="DEFAULT_VEHTYPE" speedFactor="1.06" vaporized=""/>
    <tripinfo id="50" depart="51.00" departLane="" departPos="0.00" departSpeed="19.48" departDelay="0.00" arrival="144.00" arrivalLane="" arrivalPos="806.12" arrivalSpeed="19.48" duration="93.00" routeLength="1811.89" waitingTime="0.00" waitingCount="0" stopTime="0.00" timeLoss="0.00" rerouteNo="0" devices="tripinfo_50" vType="DEFAULT_VEHTYPE" speedFactor="0.88" vaporized=""/>
    <tripinfo id="89" depart="92.00" departLane="" departPos="0.00" departSpeed="22.37" departDelay="0.00" arrival="144.00" arrivalLane="" arrivalPos="38.78" arrivalSpeed="13.05" duration="52.00" routeLength="1301.36" waitingTime="1.25" waitingCount="0" stopTime="0.00" timeLoss="5.32" rerouteNo="0" devices="tripinfo_89" vType="DEFAULT_VEHTYPE" speedFactor="1.04" vaporized=""/>
    <tripinfo id="52" depart="53.00" departLane="" departPos="0.00" departSpeed="19.00" departDelay="0.00" arrival="145.00" arrivalLane="" arrivalPos="294.40" arrivalSpeed="23.75" duration="92.00" routeLength="1887.77" waitingTime="0.00" waitingCount="0" stopTime="0.00" timeLoss="0.00" rerouteNo="0" devices="tripinfo_52" vType="DEFAULT_VEHTYPE" speedFactor="0.85" vaporized=""/>
    <tripinfo id="109" depart="111.00" departLane="" departPos="0.00" departSpeed="28.73" departDelay="0.00" arrival="145.00" arrivalLane="" arrivalPos="100.00" arrivalSpeed="28.74" duration="34.00" routeLength="952.53" waitingTime="0.00" waitingCount="0" stopTime="0.00" timeLoss="0.00" rerouteNo="0" devices="tripinfo_109" vType="DEFAULT_VEHTYPE" speedFactor="1.03" vaporized=""/>