<?xml version="1.0" encoding="UTF-8"?>

<!-- generated on 2023-04-30 15:27:12 by Eclipse SUMO sumo Version 1.16.0
<configuration xmlns:xsi="http://www.w3.org/2001/XMLSchema-instance" xsi:noNamespaceSchemaLocation="http://sumo.dlr.de/xsd/sumoConfiguration.xsd">

    <input>
        <net-file value="003/../configurations/maps/Random_English.net.xml"/>
        <route-files value="003/Trips_File_003.rou.xml"/>
        <additional-files value="003/../edgedata.add.xml"/>
    </input>

    <output>
        <output-prefix value="003/"/>
        <summary-output value="003/../summary_003.xml"/>
        <tripinfo-output value="003/../tripinfo_003.xml"/>
    </output>

    <time>
        <begin value="0"/>
    </time>

    <processing>
        <route-steps value="200"/>
        <no-internal-links value="False"/>
        <time-to-teleport value="300"/>
        <time-to-teleport.highways value="0"/>
        <eager-insert value="False"/>
    </processing>

    <report>
        <verbose value="true"/>
        <no-warnings value="False"/>
        <log value="003/../iteration_003.sumo.log"/>
        <no-step-log value="true"/>
    </report>

    <mesoscopic>
        <mesosim value="true"/>
        <meso-recheck value="0"/>
    </mesoscopic>

    <random_number>
        <random value="False"/>
    </random_number>

</configuration>
-->

<tripinfos xmlns:xsi="http://www.w3.org/2001/XMLSchema-instance" xsi:noNamespaceSchemaLocation="http://sumo.dlr.de/xsd/tripinfo_file.xsd">
    <tripinfo id="2" depart="0.00" departLane="" departPos="0.00" departSpeed="14.72" departDelay="0.00" arrival="63.00" arrivalLane="" arrivalPos="209.16" arrivalSpeed="14.72" duration="63.00" routeLength="917.60" waitingTime="0.00" waitingCount="0" stopTime="0.00" timeLoss="0.00" rerouteNo="0" devices="tripinfo_2" vType="DEFAULT_VEHTYPE" speedFactor="1.06" vaporized=""/>
    <tripinfo id="9" depart="7.00" departLane="" departPos="0.00" departSpeed="12.31" departDelay="0.00" arrival="63.00" arrivalLane="" arrivalPos="182.56" arrivalSpeed="12.31" duration="56.00" routeLength="679.07" waitingTime="0.00" waitingCount="0" stopTime="0.00" timeLoss="0.00" rerouteNo="0" devices="tripinfo_9" vType="DEFAULT_VEHTYPE" speedFactor="0.89" vaporized=""/>
    <tripinfo id="33" depart="40.00" departLane="" departPos="0.00" departSpeed="16.03" departDelay="0.00" arrival="63.00" arrivalLane="" arrivalPos="168.49" arrivalSpeed="16.03" duration="23.00" routeLength="357.93" waitingTime="0.00" waitingCount="0" stopTime="0.00" timeLoss="0.00" rerouteNo="0" devices="tripinfo_33" vType="DEFAULT_VEHTYPE" speedFactor="1.15" vaporized=""/>
    <tripinfo id="3" depart="0.00" departLane="" departPos="0.00" departSpeed="13.03" departDelay="0.00" arrival="80.00" arrivalLane="" arrivalPos="131.51" arrivalSpeed="13.03" duration="80.00" routeLength="1040.47" waitingTime="0.00" waitingCount="0" stopTime="0.00" timeLoss="0.00" rerouteNo="0" devices="tripinfo_3" vType="DEFAULT_VEHTYPE" speedFactor="0.94" vaporized=""/>
    <tripinfo id="32" depart="38.00" departLane="" departPos="0.00" departSpeed="16.37" departDelay="0.00" arrival="82.00" arrivalLane="" arrivalPos="107.25" arrivalSpeed="16.37" duration="44.00" routeLength="719.44" waitingTime="0.00" waitingCount="0" stopTime="0.00" timeLoss="0.00" rerouteNo="0" devices="tripinfo_32" vType="DEFAULT_VEHTYPE" speedFactor="1.18" vaporized=""/>
    <tripinfo id="37" depart="44.00" departLane="" departPos="0.00" departSpeed="14.16" departDelay="0.00" arrival="82.00" arrivalLane="" arrivalPos="195.19" arrivalSpeed="14.16" duration="38.00" routeLength="535.84" waitingTime="0.00" waitingCount="0" stopTime="0.00" timeLoss="0.00" rerouteNo="0" devices="tripinfo_37" vType="DEFAULT_VEHTYPE" speedFactor="1.02" vaporized=""/>
    <tripinfo id="40" depart="45.00" departLane="" departPos="0.00" departSpeed="15.31" departDelay="0.00" arrival="89.00" arrivalLane="" arrivalPos="198.33" arrivalSpeed="15.31" duration="44.00" routeLength="665.88" waitingTime="0.00" waitingCount="0" stopTime="0.00" timeLoss="0.00" rerouteNo="0" devices="tripinfo_40" vType="DEFAULT_VEHTYPE" speedFactor="1.10" vaporized=""/>
    <tripinfo id="29" depart="33.00" departLane="" departPos="0.00" departSpeed="13.18" departDelay="0.00" arrival="92.00" arrivalLane="" arrivalPos="98.29" arrivalSpeed="13.18" duration="59.00" routeLength="772.83" waitingTime="0.00" waitingCount="0" stopTime="0.00" timeLoss="0.00" rerouteNo="0" devices="tripinfo_29" vType="DEFAULT_VEHTYPE" speedFactor="0.95" vaporized=""/>
    <tripinfo id="31" depart="37.00" departLane="" departPos="0.00" departSpeed="12.94" departDelay="0.00" arrival="98.00" arrivalLane="" arrivalPos="145.77" arrivalSpeed="12.94" duration="61.00" routeLength="778.37" waitingTime="0.00" waitingCount="0" stopTime="0.00" timeLoss="0.00" rerouteNo="0" devices="tripinfo_31" vType="DEFAULT_VEHTYPE" speedFactor="0.93" vaporized=""/>
    <tripinfo id="5" depart="4.00" departLane="" departPos="0.00" departSpeed="15.04" departDelay="0.00" arrival="103.00" arrivalLane="" arrivalPos="95.50" arrivalSpeed="15.04" duration="99.00" routeLength="1488.39" waitingTime="0.00" waitingCount="0" stopTime="0.00" timeLoss="0.00" rerouteNo="0" devices="tripinfo_5" vType="DEFAULT_VEHTYPE" speedFactor="1.08" vaporized=""/>
    <tripinfo id="46" depart="50.00" departLane="" departPos="0.00" departSpeed="14.49" departDelay="0.00" arrival="107.00" arrivalLane="" arrivalPos="196.86" arrivalSpeed="14.49" duration="57.00" routeLength="814.84" waitingTime="0.00" waitingCount="0" stopTime="0.00" timeLoss="0.00" rerouteNo="0" devices="tripinfo_46" vType="DEFAULT_VEHTYPE" speedFactor="1.04" vaporized=""/>
    <tripinfo id="12" depart="13.00" departLane="" departPos="0.00" departSpeed="15.15" departDelay="0.00" arrival="109.00" arrivalLane="" arrivalPos="230.55" arrivalSpeed="15.15" duration="96.00" routeLength="1450.18" waitingTime="0.00" waitingCount="0" stopTime="0.00" timeLoss="0.00" rerouteNo="0" devices="tripinfo_12" vType="DEFAULT_VEHTYPE" speedFactor="1.09" vaporized=""/>
    <tripinfo id="15" depart="14.00" departLane="" departPos="0.00" departSpeed="15.60" departDelay="0.00" arrival="111.00" arrivalLane="" arrivalPos="109.90" arrivalSpeed="15.60" duration="97.00" routeLength="1498.61" waitingTime="0.00" waitingCount="0" stopTime="0.00" timeLoss="0.00" rerouteNo="0" devices="tripinfo_15" vType="DEFAULT_VEHTYPE" speedFactor="1.12" vaporized=""/>
    <tripinfo id="36" depart="41.00" departLane="" departPos="0.00" departSpeed="13.82" departDelay="0.00" arrival="111.00" arrivalLane="" arrivalPos="166.30" arrivalSpeed="13.82" duration="70.00" routeLength="956.82" waitingTime="0.00" waitingCount="0" stopTime="0.00" timeLoss="0.00" rerouteNo="0" devices="tripinfo_36" vType="DEFAULT_VEHTYPE" speedFactor="0.99" vaporized=""/>
    <tripinfo id="59" depart="63.00" departLane="" departPos="0.00" departSpeed="15.87" departDelay="0.00" arrival="111.00" arrivalLane="" arrivalPos="91.80" arrivalSpeed="15.87" duration="48.00" routeLength="758.44" waitingTime="0.00" waitingCount="0" stopTime="0.00" timeLoss="0.00" rerouteNo="0" devices="tripinfo_59" vType="DEFAULT_VEHTYPE" speedFactor="1.14" vaporized=""/>
    <tripinfo id="30" depart="34.00" departLane="" departPos="0.00" departSpeed="15.72" departDelay="0.00" arrival="112.00" arrivalLane="" arrivalPos="115.28" arrivalSpeed="15.72" duration="78.00" routeLength="1212.16" waitingTime="0.00" waitingCount="0" stopTime="0.00" timeLoss="0.00" rerouteNo="0" devices="tripinfo_30" vType="DEFAULT_VEHTYPE" speedFactor="1.13" vaporized=""/>
    <tripinfo id="6" depart="4.00" departLane="" departPos="0.00" departSpeed="14.31" departDelay="0.00" arrival="116.00" arrivalLane="" arrivalPos="197.12" arrivalSpeed="14.31" duration="112.00" routeLength="1596.02" waitingTime="0.00" waitingCount="0" stopTime="0.00" timeLoss="0.00" rerouteNo="0" devices="tripinfo_6" vType="DEFAULT_VEHTYPE" speedFactor="1.03" vaporized=""/>
    <tripinfo id="56" depart="60.00" departLane="" departPos="0.00" departSpeed="13.93" departDelay="0.00" arrival="117.00" arrivalLane="" arrivalPos="129.97" arrivalSpeed="13.93" duration="57.00" routeLength="782.38" waitingTime="0.00" waitingCount="0" stopTime="0.00" timeLoss="0.00" rerouteNo="0" devices="tripinfo_56" vType="DEFAULT_VEHTYPE" speedFactor="1.00" vaporized=""/>
    <tripinfo id="87" depart="97.00" departLane="" departPos="0.00" departSpeed="13.56" departDelay="0.00" arrival="119.00" arrivalLane="" arrivalPos="147.22" arrivalSpeed="13.56" duration="22.00" routeLength="294.44" waitingTime="0.00" waitingCount="0" stopTime="0.00" timeLoss="0.00" rerouteNo="0" devices="tripinfo_87" vType="DEFAULT_VEHTYPE" speedFactor="0.98" vaporized=""/>
    <tripinfo id="14" depart="14.00" departLane="" departPos="0.00" departSpeed="14.54" departDelay="0.00" arrival="121.00" arrivalLane="" arrivalPos="208.50" arrivalSpeed="14.54" duration="107.00" routeLength="1543.55" waitingTime="0.00" waitingCount="0" stopTime="0.00" timeLoss="0.00" rerouteNo="0" devices="tripinfo_14" vType="DEFAULT_VEHTYPE" speedFactor="1.05" vaporized=""/>
    <tripinfo id="64" depart="73.00" departLane="" departPos="0.00" departSpeed="14.11" departDelay="0.00" arrival="121.00" arrivalLane="" arrivalPos="124.25" arrivalSpeed="14.11" duration="48.00" routeLength="666.02" waitingTime="0.00" waitingCount="0" stopTime="0.00" timeLoss="0.00" rerouteNo="0" devices="tripinfo_64" vType="DEFAULT_VEHTYPE" speedFactor="1.02" vaporized=""/>
    <tripinfo id="18" depart="20.00" departLane="" departPos="0.00" departSpeed="12.20" departDelay="0.00" arrival="123.00" arrivalLane="" arrivalPos="141.22" arrivalSpeed="12.20" duration="103.00" routeLength="1248.75" waitingTime="0.00" waitingCount="0" stopTime="0.00" timeLoss="0.00" rerouteNo="0" devices="tripinfo_18" vType="DEFAULT_VEHTYPE" speedFactor="0.88" vaporized=""/>
    <tripinfo id="42" depart="48.00" departLane="" departPos="0.00" departSpeed="14.31" departDelay="0.00" arrival="128.00" arrivalLane="" arrivalPos="161.85" arrivalSpeed="14.31" duration="80.00" routeLength="1114.25" waitingTime="0.67" waitingCount="0" stopTime="0.00" timeLoss="1.71" rerouteNo="0" devices="tripinfo_42" vType="DEFAULT_VEHTYPE" speedFactor="1.03" vaporized=""/>
    <tripinfo id="4" depart="3.00" departLane="" departPos="0.00" departSpeed="14.03" departDelay="0.00" arrival="129.00" arrivalLane="" arrivalPos="95.18" arrivalSpeed="14.03" duration="126.00" routeLength="1766.08" waitingTime="0.00" waitingCount="0" stopTime="0.00" timeLoss="0.00" rerouteNo="0" devices="tripinfo_4" vType="DEFAULT_VEHTYPE" speedFactor="1.01" vaporized=""/>
    <tripinfo id="52" depart="54.00" departLane="" departPos="0.00" departSpeed="11.87" departDelay="0.00" arrival="129.00" arrivalLane="" arrivalPos="111.07" arrivalSpeed="11.87" duration="75.00" routeLength="883.19" waitingTime="0.00" waitingCount="0" stopTime="0.00" timeLoss="0.00" rerouteNo="0" devices="tripinfo_52" vType="DEFAULT_VEHTYPE" speedFactor="0.85" vaporized=""/>
    <tripinfo id="47" depart="50.00" departLane="" departPos="0.00" departSpeed="15.11" departDelay="0.00" arrival="130.00" arrivalLane="" arrivalPos="149.71" arrivalSpeed="15.11" duration="80.00" routeLength="1192.93" waitingTime="0.00" waitingCount="0" stopTime="0.00" timeLoss="0.35" rerouteNo="0" devices="tripinfo_47" vType="DEFAULT_VEHTYPE" speedFactor="1.09" vaporized=""/>
    <tripinfo id="8" depart="7.00" departLane="" departPos="0.00" departSpeed="14.53" departDelay="0.00" arrival="131.00" arrivalLane="" arrivalPos="91.76" arrivalSpeed="14.53" duration="124.00" routeLength="1794.22" waitingTime="0.00" waitingCount="0" stopTime="0.00" timeLoss="0.00" rerouteNo="0" devices="tripinfo_8" vType="DEFAULT_VEHTYPE" speedFactor="1.05" vaporized=""/>
    <tripinfo id="82" depart="91.00" departLane="" departPos="0.00" departSpeed="14.37" departDelay="0.00" arrival="131.00" arrivalLane="" arrivalPos="168.49" arrivalSpeed="14.37" duration="40.00" routeLength="565.64" waitingTime="0.00" waitingCount="0" stopTime="0.00" timeLoss="0.00" rerouteNo="0" devices="tripinfo_82" vType="DEFAULT_VEHTYPE" speedFactor="1.03" vaporized=""/>
    <tripinfo id="68" depart="80.00" departLane="" departPos="0.00" departSpeed="12.60" departDelay="0.00" arrival="134.00" arrivalLane="" arrivalPos="128.61" arrivalSpeed="12.60" duration="54.00" routeLength="669.56" waitingTime="0.00" waitingCount="0" stopTime="0.00" timeLoss="0.00" rerouteNo="0" devices="tripinfo_68" vType="DEFAULT_VEHTYPE" speedFactor="0.91" vaporized=""/>
    <tripinfo id="11" depart="12.00" departLane="" departPos="0.00" departSpeed="11.90" departDelay="0.00" arrival="135.00" arrivalLane="" arrivalPos="132.83" arrivalSpeed="11.90" duration="123.00" routeLength="1460.39" waitingTime="0.00" waitingCount="0" stopTime="0.00" timeLoss="0.00" rerouteNo="0" devices="tripinfo_11" vType="DEFAULT_VEHTYPE" speedFactor="0.86" vaporized=""/>
    <tripinfo id="43" depart="48.00" departLane="" departPos="0.00" departSpeed="13.29" departDelay="0.00" arrival="137.00" arrivalLane="" arrivalPos="110.95" arrivalSpeed="13.29" duration="89.00" routeLength="1177.02" waitingTime="0.00" waitingCount="0" stopTime="0.00" timeLoss="0.00" rerouteNo="0" devices="tripinfo_43" vType="DEFAULT_VEHTYPE" speedFactor="0.96" vaporized=""/>
    <tripinfo id="24" depart="30.00" departLane="" departPos="0.00" departSpeed="13.54" departDelay="0.00" arrival="146.00" arrivalLane="" arrivalPos="107.02" arrivalSpeed="13.54" duration="116.00" routeLength="1541.73" waitingTime="1.57" waitingCount="0" stopTime="0.00" timeLoss="2.07" rerouteNo="0" devices="tripinfo_24" vType="DEFAULT_VEHTYPE" speedFactor="0.97" vaporized=""/>
    <tripinfo id="86" depart="94.00" departLane="" departPos="0.00" departSpeed="15.94" departDelay="0.00" arrival="148.00" arrivalLane="" arrivalPos="104.02" arrivalSpeed="15.94" duration="54.00" routeLength="856.46" waitingTime="0.00" waitingCount="0" stopTime="0.00" timeLoss="0.00" rerouteNo="0" devices="tripinfo_86" vType="DEFAULT_VEHTYPE" speedFactor="1.15" vaporized=""/>
    <tripinfo id="48" depart="51.00" departLane="" departPos="0.00" departSpeed="13.85" departDelay="0.00" arrival="149.00" arrivalLane="" arrivalPos="215.42" arrivalSpeed="13.85" duration="98.00" routeLength="1346.14" waitingTime="0.00" waitingCount="0" stopTime="0.00" timeLoss="0.00" rerouteNo="0" devices="tripinfo_48" vType="DEFAULT_VEHTYPE" speedFactor="1.00" vaporized=""/>
    <tripinfo id="50" depart="53.00" departLane="" departPos="0.00" departSpeed="12.18" departDelay="0.00" arrival="149.00" arrivalLane="" arrivalPos="161.85" arrivalSpeed="12.18" duration="96.00" routeLength="1164.35" waitingTime="0.00" waitingCount="0" stopTime="0.00" timeLoss="0.00" rerouteNo="0" devices="tripinfo_50" vType="DEFAULT_VEHTYPE" speedFactor="0.88" vaporized=""/>
    <tripinfo id="57" depart="61.00" departLane="" departPos="0.00" departSpeed="13.83" departDelay="0.00" arrival="151.00" arrivalLane="" arrivalPos="125.77" arrivalSpeed="13.83" duration="90.00" routeLength="1244.27" waitingTime="0.00" waitingCount="0" stopTime="0.00" timeLoss="0.00" rerouteNo="0" devices="tripinfo_57" vType="DEFAULT_VEHTYPE" speedFactor="1.00" vaporized=""/>
    <tripinfo id="25" depart="30.00" departLane="" departPos="0.00" departSpeed="12.36" departDelay="0.00" arrival="153.00" arrivalLane="" arrivalPos="78.64" arrivalSpeed="12.36" duration="123.00" routeLength="1498.19" waitingTime="1.28" waitingCount="0" stopTime="0.00" timeLoss="1.28" rerouteNo="0" devices="tripinfo_25" vType="DEFAULT_VEHTYPE" speedFactor="0.89" vaporized=""/>
    <tripinfo id="44" depart="49.00" departLane="" departPos="0.00" departSpeed="15.17" departDelay="0.00" arrival="155.00" arrivalLane="" arrivalPos="206.52" arrivalSpeed="15.17" duration="106.00" routeLength="1600.11" waitingTime="0.00" waitingCount="0" stopTime="0.00" timeLoss="0.00" rerouteNo="0" devices="tripinfo_44" vType="DEFAULT_VEHTYPE" speedFactor="1.09" vaporized=""/>
    <tripinfo id="26" depart="30.00" departLane="" departPos="0.00" departSpeed="11.47" departDelay="0.00" arrival="157.00" arrivalLane="" arrivalPos="110.08" arrivalSpeed="11.47" duration="127.00" routeLength="1447.56" waitingTime="0.00" waitingCount="0" stopTime="0.00" timeLoss="0.00" rerouteNo="0" devices="tripinfo_26" vType="DEFAULT_VEHTYPE" speedFactor="0.83" vaporized=""/>
    <tripinfo id="39" depart="45.00" departLane="" departPos="0.00" departSpeed="16.39" departDelay="0.00" arrival="157.00" arrivalLane="" arrivalPos="184.87" arrivalSpeed="16.39" duration="112.00" routeLength="1796.71" waitingTime="1.35" waitingCount="0" stopTime="0.00" timeLoss="1.79" rerouteNo="0" devices="tripinfo_39" vType="DEFAULT_VEHTYPE" speedFactor="1.18" vaporized=""/>
    <tripinfo id="19" depart="20.00" departLane="" departPos="0.00" departSpeed="13.08" departDelay="0.00" arrival="158.00" arrivalLane="" arrivalPos="222.28" arrivalSpeed="13.08" duration="138.00" routeLength="1798.02" waitingTime="0.00" waitingCount="0" stopTime="0.00" timeLoss="0.00" rerouteNo="0" devices="tripinfo_19" vType="DEFAULT_VEHTYPE" speedFactor="0.94" vaporized=""/>
    <tripinfo id="63" depart="70.00" departLane="" departPos="0.00" departSpeed="15.55" departDelay="0.00" arrival="159.00" arrivalLane="" arrivalPos="141.57" arrivalSpeed="15.55" duration="89.00" routeLength="1376.88" waitingTime="0.00" waitingCount="0" stopTime="0.00" timeLoss="0.00" rerouteNo="0" devices="tripinfo_63" vType="DEFAULT_VEHTYPE" speedFactor="1.12" vaporized=""/>
    <tripinfo id="96" depart="107.00" departLane="" departPos="0.00" departSpeed="15.15" departDelay="0.00" arrival="163.00" arrivalLane="" arrivalPos="132.18" arrivalSpeed="15.15" duration="56.00" routeLength="838.57" waitingTime="0.00" waitingCount="0" stopTime="0.00" timeLoss="0.00" rerouteNo="0" devices="tripinfo_96" vType="DEFAULT_VEHTYPE" speedFactor="1.09" vaporized=""/>
    <tripinfo id="98" depart="109.00" departLane="" departPos="0.00" departSpeed="14.03" departDelay="0.00" arrival="163.00" arrivalLane="" arrivalPos="137.52" arrivalSpeed="14.03" duration="54.00" routeLength="744.00" waitingTime="0.00" waitingCount="0" stopTime="0.00" timeLoss="0.00" rerouteNo="0" devices="tripinfo_98" vType="DEFAULT_VEHTYPE" speedFactor="1.01" vaporized=""/>
    <tripinfo id="65" depart="74.00" departLane="" departPos="0.00" departSpeed="13.71" departDelay="0.00" arrival="164.00" arrivalLane="" arrivalPos="118.76" arrivalSpeed="13.71" duration="90.00" routeLength="1230.03" waitingTime="0.00" waitingCount="0" stopTime="0.00" timeLoss="0.00" rerouteNo="0" devices="tripinfo_65" vType="DEFAULT_VEHTYPE" speedFactor="0.99" vaporized=""/>
    <tripinfo id="78" depart="87.00" departLane="" departPos="0.00" departSpeed="14.34" departDelay="0.00" arrival="166.00" arrivalLane="" arrivalPos="177.06" arrivalSpeed="14.34" duration="79.00" routeLength="1123.52" waitingTime="0.00" waitingCount="0" stopTime="0.00" timeLoss="0.00" rerouteNo="0" devices="tripinfo_78" vType="DEFAULT_VEHTYPE" speedFactor="1.03" vaporized=""/>
    <tripinfo id="73" depart="86.00" departLane="" departPos="0.00" departSpeed="13.51" departDelay="0.00" arrival="169.00" arrivalLane="" arrivalPos="174.54" arrivalSpeed="13.51" duration="83.00" routeLength="1118.68" waitingTime="0.00" waitingCount="0" stopTime="0.00" timeLoss="0.00" rerouteNo="0" devices="tripinfo_73" vType="DEFAULT_VEHTYPE" speedFactor="0.97" vaporized=""/>
    <tripinfo id="118" depart="123.00" departLane="" departPos="0.00" departSpeed="16.35" departDelay="0.00" arrival="171.00" arrivalLane="" arrivalPos="135.09" arrivalSpeed="16.35" duration="48.00" routeLength="783.89" waitingTime="0.00" waitingCount="0" stopTime="0.00" timeLoss="0.00" rerouteNo="0" devices="tripinfo_118" vType="DEFAULT_VEHTYPE" speedFactor="1.18" vaporized=""/>
    <tripinfo id="17" depart="19.00" departLane="" departPos="0.00" departSpeed="12.87" departDelay="0.00" arrival="173.00" arrivalLane="" arrivalPos="114.02" arrivalSpeed="12.87" duration="154.00" routeLength="1974.82" waitingTime="0.00" waitingCount="0" stopTime="0.00" timeLoss="0.00" rerouteNo="0" devices="tripinfo_17" vType="DEFAULT_VEHTYPE" speedFactor="0.93" vaporized=""/>
    <tripinfo id="129" depart="131.00" departLane="" departPos="0.00" departSpeed="11.42" departDelay="0.00" arrival="173.00" arrivalLane="" arrivalPos="234.48" arrivalSpeed="11.42" duration="42.00" routeLength="468.96" waitingTime="0.00" waitingCount="0" stopTime="0.00" timeLoss="0.00" rerouteNo="0" devices="tripinfo_129" vType="DEFAULT_VEHTYPE" speedFactor="0.82" vaporized=""/>
    <tripinfo id="16" depart="18.00" departLane="" departPos="0.00" departSpeed="13.77" departDelay="0.00" arrival="176.00" arrivalLane="" arrivalPos="74.82" arrivalSpeed="13.77" duration="158.00" routeLength="2167.92" waitingTime="0.28" waitingCount="0" stopTime="0.00" timeLoss="0.28" rerouteNo="0" devices="tripinfo_16" vType="DEFAULT_VEHTYPE" speedFactor="0.99" vaporized=""/>
    <tripinfo id="80" depart="88.00" departLane="" departPos="0.00" departSpeed="13.99" departDelay="0.00" arrival="177.00" arrivalLane="" arrivalPos="114.82" arrivalSpeed="13.99" duration="89.00" routeLength="1217.56" waitingTime="0.00" waitingCount="0" stopTime="0.00" timeLoss="1.09" rerouteNo="0" devices="tripinfo_80" vType="DEFAULT_VEHTYPE" speedFactor="1.01" vaporized=""/>
    <tripinfo id="119" depart="123.00" departLane="" departPos="0.00" departSpeed="13.95" departDelay="0.00" arrival="178.00" arrivalLane="" arrivalPos="168.57" arrivalSpeed="13.95" duration="55.00" routeLength="761.02" waitingTime="0.00" waitingCount="0" stopTime="0.00" timeLoss="0.00" rerouteNo="0" devices="tripinfo_119" vType="DEFAULT_VEHTYPE" speedFactor="1.00" vaporized=""/>
    <tripinfo id="38" depart="44.00" departLane="" departPos="0.00" departSpeed="13.52" departDelay="0.00" arrival="179.00" arrivalLane="" arrivalPos="123.06" arrivalSpeed="13.52" duration="135.00" routeLength="1816.13" waitingTime="0.00" waitingCount="0" stopTime="0.00" timeLoss="0.00" rerouteNo="0" devices="tripinfo_38" vType="DEFAULT_VEHTYPE" speedFactor="0.97" vaporized=""/>
    <tripinfo id="89" depart="97.00" departLane="" departPos="0.00" departSpeed="14.48" departDelay="0.00" arrival="180.00" arrivalLane="" arrivalPos="146.86" arrivalSpeed="14.48" duration="83.00" routeLength="1195.17" waitingTime="0.00" waitingCount="0" stopTime="0.00" timeLoss="0.00" rerouteNo="0" devices="tripinfo_89" vType="DEFAULT_VEHTYPE" speedFactor="1.04" vaporized=""/>
    <tripinfo id="49" depart="52.00" departLane="" departPos="0.00" departSpeed="12.51" departDelay="0.00" arrival="181.00" arrivalLane="" arrivalPos="184.52" arrivalSpeed="12.51" duration="129.00" routeLength="1603.48" waitingTime="0.00" waitingCount="0" stopTime="0.00" timeLoss="0.00" rerouteNo="0" devices="tripinfo_49" vType="DEFAULT_VEHTYPE" speedFactor="0.90" vaporized=""/>
    <tripinfo id="67" depart="79.00" departLane="" departPos="0.00" departSpeed="12.26" departDelay="0.00" arrival="182.00" arrivalLane="" arrivalPos="137.51" arrivalSpeed="12.25" duration="103.00" routeLength="1262.29" waitingTime="0.00" waitingCount="0" stopTime="0.00" timeLoss="0.00" rerouteNo="0" devices="tripinfo_67" vType="DEFAULT_VEHTYPE" speedFactor="0.88" vaporized=""/>
    <tripinfo id="23" depart="29.00" departLane="" departPos="0.00" departSpeed="14.03" departDelay="0.00" arrival="184.00" arrivalLane="" arrivalPos="187.13" arrivalSpeed="14.03" duration="155.00" routeLength="2171.55" waitingTime="0.00" waitingCount="0" stopTime="0.00" timeLoss="0.00" rerouteNo="0" devices="tripinfo_23" vType="DEFAULT_VEHTYPE" speedFactor="1.01" vaporized=""/>
    <tripinfo id="114" depart="121.00" departLane="" departPos="0.00" departSpeed="14.14" departDelay="0.00" arrival="184.00" arrivalLane="" arrivalPos="193.01" arrivalSpeed="15.26" duration="63.00" routeLength="929.57" waitingTime="0.00" waitingCount="0" stopTime="0.00" timeLoss="1.36" rerouteNo="0" devices="tripinfo_114" vType="DEFAULT_VEHTYPE" speedFactor="1.10" vaporized=""/>
    <tripinfo id="123" depart="126.00" departLane="" departPos="0.00" departSpeed="15.32" departDelay="0.00" arrival="185.00" arrivalLane="" arrivalPos="170.54" arrivalSpeed="15.32" duration="59.00" routeLength="898.11" waitingTime="0.00" waitingCount="0" stopTime="0.00" timeLoss="0.00" rerouteNo="0" devices="tripinfo_123" vType="DEFAULT_VEHTYPE" speedFactor="1.10" vaporized=""/>
    <tripinfo id="71" depart="84.00" departLane="" departPos="0.00" departSpeed="14.20" departDelay="0.00" arrival="188.00" arrivalLane="" arrivalPos="190.25" arrivalSpeed="14.20" duration="104.00" routeLength="1444.80" waitingTime="0.00" waitingCount="0" stopTime="0.00" timeLoss="1.70" rerouteNo="0" devices="tripinfo_71" vType="DEFAULT_VEHTYPE" speedFactor="1.02" vaporized=""/>
    <tripinfo id="45" depart="49.00" departLane="" departPos="0.00" departSpeed="14.42" departDelay="0.00" arrival="191.00" arrivalLane="" arrivalPos="102.22" arrivalSpeed="14.42" duration="142.00" routeLength="2045.30" waitingTime="0.00" waitingCount="0" stopTime="0.00" timeLoss="0.00" rerouteNo="0" devices="tripinfo_45" vType="DEFAULT_VEHTYPE" speedFactor="1.04" vaporized=""/>
    <tripinfo id="109" depart="116.00" departLane="" departPos="0.00" departSpeed="14.37" departDelay="0.00" arrival="193.00" arrivalLane="" arrivalPos="161.79" arrivalSpeed="14.37" duration="77.00" routeLength="1094.61" waitingTime="0.00" waitingCount="0" stopTime="0.00" timeLoss="0.00" rerouteNo="0" devices="tripinfo_109" vType="DEFAULT_VEHTYPE" speedFactor="1.03" vaporized=""/>
    <tripinfo id="28" depart="33.00" departLane="" departPos="0.00" departSpeed="12.74" departDelay="0.00" arrival="195.00" arrivalLane="" arrivalPos="230.55" arrivalSpeed="12.74" duration="162.00" routeLength="2063.73" waitingTime="0.00" waitingCount="0" stopTime="0.00" timeLoss="0.00" rerouteNo="0" devices="tripinfo_28" vType="DEFAULT_VEHTYPE" speedFactor="0.92" vaporized=""/>
    <tripinfo id="113" depart="120.00" departLane="" departPos="0.00" departSpeed="12.03" departDelay="0.00" arrival="195.00" arrivalLane="" arrivalPos="165.60" arrivalSpeed="12.03" duration="75.00" routeLength="894.75" waitingTime="0.00" waitingCount="0" stopTime="0.00" timeLoss="0.00" rerouteNo="0" devices="tripinfo_113" vType="DEFAULT_VEHTYPE" speedFactor="0.87" vaporized=""/>
    <tripinfo id="70" depart="81.00" departLane="" departPos="0.00" departSpeed="14.45" departDelay="0.00" arrival="196.00" arrivalLane="" arrivalPos="142.41" arrivalSpeed="14.45" duration="115.00" routeLength="1657.68" waitingTime="0.00" waitingCount="0" stopTime="0.00" timeLoss="0.00" rerouteNo="0" devices="tripinfo_70" vType="DEFAULT_VEHTYPE" speedFactor="1.04" vaporized=""/>
    <tripinfo id="127" depart="129.00" departLane="" departPos="0.00" departSpeed="16.01" departDelay="0.00" arrival="197.00" arrivalLane="" arrivalPos="176.66" arrivalSpeed="15.84" duration="68.00" routeLength="1077.85" waitingTime="0.00" waitingCount="0" stopTime="0.00" timeLoss="0.06" rerouteNo="0" devices="tripinfo_127" vType="DEFAULT_VEHTYPE" speedFactor="1.15" vaporized=""/>
    <tripinfo id="90" depart="98.00" departLane="" departPos="0.00" departSpeed="13.99" departDelay="0.00" arrival="200.00" arrivalLane="" arrivalPos="132.18" arrivalSpeed="13.99" duration="102.00" routeLength="1423.53" waitingTime="0.00" waitingCount="0" stopTime="0.00" timeLoss="0.00" rerouteNo="0" devices="tripinfo_90" vType="DEFAULT_VEHTYPE" speedFactor="1.01" vaporized=""/>
    <tripinfo id="116" depart="123.00" departLane="" departPos="0.00" departSpeed="15.23" departDelay="0.00" arrival="201.00" arrivalLane="" arrivalPos="115.28" arrivalSpeed="15.23" duration="78.00" routeLength="1173.44" waitingTime="0.00" waitingCount="0" stopTime="0.00" timeLoss="0.00" rerouteNo="0" devices="tripinfo_116" vType="DEFAULT_VEHTYPE" speedFactor="1.10" vaporized=""/>
    <tripinfo id="79" depart="87.00" departLane="" departPos="0.00" departSpeed="13.64" departDelay="0.00" arrival="208.00" arrivalLane="" arrivalPos="111.07" arrivalSpeed="13.64" duration="121.00" routeLength="1643.60" waitingTime="0.00" waitingCount="0" stopTime="0.00" timeLoss="0.00" rerouteNo="0" devices="tripinfo_79" vType="DEFAULT_VEHTYPE" speedFactor="0.98" vaporized=""/>
    <tripinfo id="125" depart="127.00" departLane="" departPos="0.00" departSpeed="14.21" departDelay="0.00" arrival="210.00" arrivalLane="" arrivalPos="200.29" arrivalSpeed="14.22" duration="83.00" routeLength="1179.58" waitingTime="0.00" waitingCount="0" stopTime="0.00" timeLoss="0.00" rerouteNo="0" devices="tripinfo_125" vType="DEFAULT_VEHTYPE" speedFactor="1.02" vaporized=""/>
    <tripinfo id="157" depart="159.00" departLane="" departPos="0.00" departSpeed="15.61" departDelay="0.00" arrival="212.00" arrivalLane="" arrivalPos="203.37" arrivalSpeed="15.61" duration="53.00" routeLength="820.15" waitingTime="0.00" waitingCount="0" stopTime="0.00" timeLoss="0.00" rerouteNo="0" devices="tripinfo_157" vType="DEFAULT_VEHTYPE" speedFactor="1.12" vaporized=""/>
    <tripinfo id="136" depart="138.00" departLane="" departPos="0.00" departSpeed="17.03" departDelay="0.00" arrival="213.00" arrivalLane="" arrivalPos="151.73" arrivalSpeed="17.03" duration="75.00" routeLength="1239.34" waitingTime="0.63" waitingCount="0" stopTime="0.00" timeLoss="1.95" rerouteNo="0" devices="tripinfo_136" vType="DEFAULT_VEHTYPE" speedFactor="1.23" vaporized=""/>
    <tripinfo id="121" depart="124.00" departLane="" departPos="0.00" departSpeed="14.87" departDelay="0.00" arrival="214.00" arrivalLane="" arrivalPos="208.50" arrivalSpeed="14.87" duration="90.00" routeLength="1311.85" waitingTime="0.00" waitingCount="0" stopTime="0.00" timeLoss="0.91" rerouteNo="0" devices="tripinfo_121" vType="DEFAULT_VEHTYPE" speedFactor="1.07" vaporized=""/>