<?xml version="1.0" encoding="UTF-8"?>

<!-- generated on 2023-04-28 21:35:43 by Eclipse SUMO sumo Version 1.16.0
<configuration xmlns:xsi="http://www.w3.org/2001/XMLSchema-instance" xsi:noNamespaceSchemaLocation="http://sumo.dlr.de/xsd/sumoConfiguration.xsd">

    <input>
        <net-file value="C:\Users\Local_Man\Desktop\Stolen%20Music\school%20stuff%20for%20college\Semester%2015%20(UH%20Graduate%20School)\COSC%206364%20Nikolaos\SUMO_Project\COSC6364_Project\configurations\maps\Braess_Homebrew_fixed1.net.xml"/>
        <route-files value="./configurations/Rounds/Braess_Homebrew_fixed1.net.xml-test-1/Macroscopic_DUE/002/Trips_File_002.rou.xml"/>
    </input>

    <output>
        <summary-output value="./configurations/Rounds/Braess_Homebrew_fixed1.net.xml-test-1/Macroscopic_DUE/002/summary.xml"/>
        <tripinfo-output value="./configurations/Rounds/Braess_Homebrew_fixed1.net.xml-test-1/Macroscopic_DUE/002/trips.trips.xml"/>
        <statistic-output value="./configurations/Rounds/Braess_Homebrew_fixed1.net.xml-test-1/Macroscopic_DUE/002/stats_output.xml"/>
    </output>

    <time>
        <begin value="0"/>
    </time>

    <report>
        <log value="./configurations/Rounds/Braess_Homebrew_fixed1.net.xml-test-1/Macroscopic_DUE/002/log.sumo.log"/>
        <no-step-log value="true"/>
    </report>

    <gui_only>
        <quit-on-end value="true"/>
    </gui_only>

</configuration>
-->

<tripinfos xmlns:xsi="http://www.w3.org/2001/XMLSchema-instance" xsi:noNamespaceSchemaLocation="http://sumo.dlr.de/xsd/tripinfo_file.xsd">
    <tripinfo id="2" depart="1.00" departLane="E0_0" departPos="5.10" departSpeed="19.50" departDelay="0.00" arrival="95.00" arrivalLane="E3_0" arrivalPos="90.46" arrivalSpeed="28.39" duration="94.00" routeLength="1314.99" waitingTime="0.00" waitingCount="0" stopTime="0.00" timeLoss="9.94" rerouteNo="0" devices="tripinfo_2" vType="DEFAULT_VEHTYPE" speedFactor="0.98" vaporized=""/>
    <tripinfo id="4" depart="5.00" departLane="E0_0" departPos="5.10" departSpeed="18.97" departDelay="0.00" arrival="97.00" arrivalLane="E3_0" arrivalPos="90.46" arrivalSpeed="31.79" duration="92.00" routeLength="1314.99" waitingTime="0.00" waitingCount="0" stopTime="0.00" timeLoss="23.22" rerouteNo="0" devices="tripinfo_4" vType="DEFAULT_VEHTYPE" speedFactor="1.20" vaporized=""/>
    <tripinfo id="5" depart="6.00" departLane="E0_0" departPos="5.10" departSpeed="17.18" departDelay="0.00" arrival="98.00" arrivalLane="E3_0" arrivalPos="90.46" arrivalSpeed="31.12" duration="92.00" routeLength="1314.99" waitingTime="0.00" waitingCount="0" stopTime="0.00" timeLoss="13.33" rerouteNo="0" devices="tripinfo_5" vType="DEFAULT_VEHTYPE" speedFactor="1.05" vaporized=""/>
    <tripinfo id="7" depart="8.00" departLane="E0_0" departPos="5.10" departSpeed="11.11" departDelay="1.00" arrival="110.00" arrivalLane="E3_0" arrivalPos="90.46" arrivalSpeed="27.68" duration="102.00" routeLength="1314.99" waitingTime="0.00" waitingCount="0" stopTime="0.00" timeLoss="14.68" rerouteNo="0" devices="tripinfo_7" vType="DEFAULT_VEHTYPE" speedFactor="0.94" vaporized=""/>
    <tripinfo id="9" depart="11.00" departLane="E0_0" departPos="5.10" departSpeed="8.90" departDelay="3.00" arrival="112.00" arrivalLane="E3_0" arrivalPos="90.46" arrivalSpeed="30.78" duration="101.00" routeLength="1314.99" waitingTime="0.00" waitingCount="0" stopTime="0.00" timeLoss="25.18" rerouteNo="0" devices="tripinfo_9" vType="DEFAULT_VEHTYPE" speedFactor="1.09" vaporized=""/>
    <tripinfo id="10" depart="12.00" departLane="E0_0" departPos="5.10" departSpeed="3.23" departDelay="4.00" arrival="121.00" arrivalLane="E3_0" arrivalPos="90.46" arrivalSpeed="26.40" duration="109.00" routeLength="1314.99" waitingTime="0.00" waitingCount="0" stopTime="0.00" timeLoss="19.32" rerouteNo="0" devices="tripinfo_10" vType="DEFAULT_VEHTYPE" speedFactor="0.92" vaporized=""/>
    <tripinfo id="13" depart="19.00" departLane="E0_0" departPos="5.10" departSpeed="1.76" departDelay="8.00" arrival="127.00" arrivalLane="E3_0" arrivalPos="90.46" arrivalSpeed="27.60" duration="108.00" routeLength="1314.99" waitingTime="0.00" waitingCount="0" stopTime="0.00" timeLoss="18.89" rerouteNo="0" devices="tripinfo_13" vType="DEFAULT_VEHTYPE" speedFactor="0.93" vaporized=""/>
    <tripinfo id="15" depart="24.00" departLane="E0_0" departPos="5.10" departSpeed="1.05" departDelay="12.00" arrival="129.00" arrivalLane="E3_0" arrivalPos="90.46" arrivalSpeed="27.12" duration="105.00" routeLength="1314.99" waitingTime="0.00" waitingCount="0" stopTime="0.00" timeLoss="17.62" rerouteNo="0" devices="tripinfo_15" vType="DEFAULT_VEHTYPE" speedFactor="0.94" vaporized=""/>
    <tripinfo id="16" depart="27.00" departLane="E0_0" departPos="5.10" departSpeed="0.64" departDelay="13.00" arrival="131.00" arrivalLane="E3_0" arrivalPos="90.46" arrivalSpeed="31.88" duration="104.00" routeLength="1314.99" waitingTime="0.00" waitingCount="0" stopTime="0.00" timeLoss="27.70" rerouteNo="0" devices="tripinfo_16" vType="DEFAULT_VEHTYPE" speedFactor="1.08" vaporized=""/>
    <tripinfo id="17" depart="31.00" departLane="E0_0" departPos="5.10" departSpeed="6.29" departDelay="16.00" arrival="132.00" arrivalLane="E3_0" arrivalPos="90.46" arrivalSpeed="29.51" duration="101.00" routeLength="1314.99" waitingTime="0.00" waitingCount="0" stopTime="0.00" timeLoss="19.70" rerouteNo="0" devices="tripinfo_17" vType="DEFAULT_VEHTYPE" speedFactor="1.01" vaporized=""/>
    <tripinfo id="18" depart="33.00" departLane="E0_0" departPos="5.10" departSpeed="6.11" departDelay="17.00" arrival="134.00" arrivalLane="E3_0" arrivalPos="90.46" arrivalSpeed="30.72" duration="101.00" routeLength="1314.99" waitingTime="0.00" waitingCount="0" stopTime="0.00" timeLoss="20.49" rerouteNo="0" devices="tripinfo_18" vType="DEFAULT_VEHTYPE" speedFactor="1.03" vaporized=""/>
    <tripinfo id="19" depart="35.00" departLane="E0_0" departPos="5.10" departSpeed="6.80" departDelay="18.00" arrival="145.00" arrivalLane="E3_0" arrivalPos="90.46" arrivalSpeed="26.51" duration="110.00" routeLength="1314.99" waitingTime="0.00" waitingCount="0" stopTime="0.00" timeLoss="17.07" rerouteNo="0" devices="tripinfo_19" vType="DEFAULT_VEHTYPE" speedFactor="0.89" vaporized=""/>
    <tripinfo id="25" depart="47.00" departLane="E0_0" departPos="5.10" departSpeed="7.94" departDelay="27.00" arrival="146.00" arrivalLane="E3_0" arrivalPos="90.46" arrivalSpeed="28.08" duration="99.00" routeLength="1314.99" waitingTime="0.00" waitingCount="0" stopTime="0.00" timeLoss="27.51" rerouteNo="0" devices="tripinfo_25" vType="DEFAULT_VEHTYPE" speedFactor="1.15" vaporized=""/>
    <tripinfo id="26" depart="49.00" departLane="E0_0" departPos="5.10" departSpeed="8.94" departDelay="28.00" arrival="147.00" arrivalLane="E3_0" arrivalPos="90.46" arrivalSpeed="28.31" duration="98.00" routeLength="1314.99" waitingTime="0.00" waitingCount="0" stopTime="0.00" timeLoss="25.31" rerouteNo="0" devices="tripinfo_26" vType="DEFAULT_VEHTYPE" speedFactor="1.12" vaporized=""/>
    <tripinfo id="27" depart="50.00" departLane="E0_0" departPos="5.10" departSpeed="4.44" departDelay="28.00" arrival="152.00" arrivalLane="E3_0" arrivalPos="90.46" arrivalSpeed="29.52" duration="102.00" routeLength="1314.99" waitingTime="0.00" waitingCount="0" stopTime="0.00" timeLoss="18.93" rerouteNo="0" devices="tripinfo_27" vType="DEFAULT_VEHTYPE" speedFactor="0.99" vaporized=""/>
    <tripinfo id="29" depart="55.00" departLane="E0_0" departPos="5.10" departSpeed="5.19" departDelay="31.00" arrival="156.00" arrivalLane="E3_0" arrivalPos="90.46" arrivalSpeed="30.05" duration="101.00" routeLength="1314.99" waitingTime="0.00" waitingCount="0" stopTime="0.00" timeLoss="20.19" rerouteNo="0" devices="tripinfo_29" vType="DEFAULT_VEHTYPE" speedFactor="1.02" vaporized=""/>
    <tripinfo id="30" depart="57.00" departLane="E0_0" departPos="5.10" departSpeed="5.85" departDelay="32.00" arrival="164.00" arrivalLane="E3_0" arrivalPos="90.46" arrivalSpeed="27.98" duration="107.00" routeLength="1314.99" waitingTime="0.00" waitingCount="0" stopTime="0.00" timeLoss="19.52" rerouteNo="0" devices="tripinfo_30" vType="DEFAULT_VEHTYPE" speedFactor="0.94" vaporized=""/>
    <tripinfo id="31" depart="59.00" departLane="E0_0" departPos="5.10" departSpeed="6.73" departDelay="33.00" arrival="166.00" arrivalLane="E3_0" arrivalPos="90.46" arrivalSpeed="30.85" duration="107.00" routeLength="1314.99" waitingTime="0.00" waitingCount="0" stopTime="0.00" timeLoss="32.05" rerouteNo="0" devices="tripinfo_31" vType="DEFAULT_VEHTYPE" speedFactor="1.10" vaporized=""/>
    <tripinfo id="3" depart="4.00" departLane="E0_0" departPos="5.10" departSpeed="21.65" departDelay="0.00" arrival="176.00" arrivalLane="E3_0" arrivalPos="90.46" arrivalSpeed="24.44" duration="172.00" routeLength="1317.38" waitingTime="72.00" waitingCount="1" stopTime="0.00" timeLoss="92.87" rerouteNo="0" devices="tripinfo_3" vType="DEFAULT_VEHTYPE" speedFactor="1.08" vaporized=""/>
    <tripinfo id="32" depart="61.00" departLane="E0_0" departPos="5.10" departSpeed="5.66" departDelay="35.00" arrival="178.00" arrivalLane="E3_0" arrivalPos="90.46" arrivalSpeed="24.06" duration="117.00" routeLength="1314.99" waitingTime="0.00" waitingCount="0" stopTime="0.00" timeLoss="19.07" rerouteNo="0" devices="tripinfo_32" vType="DEFAULT_VEHTYPE" speedFactor="0.83" vaporized=""/>
    <tripinfo id="33" depart="63.00" departLane="E0_0" departPos="5.10" departSpeed="4.12" departDelay="33.00" arrival="180.00" arrivalLane="E3_0" arrivalPos="90.46" arrivalSpeed="29.66" duration="117.00" routeLength="1314.99" waitingTime="0.00" waitingCount="0" stopTime="0.00" timeLoss="37.16" rerouteNo="0" devices="tripinfo_33" vType="DEFAULT_VEHTYPE" speedFactor="1.03" vaporized=""/>
    <tripinfo id="34" depart="65.00" departLane="E0_0" departPos="5.10" departSpeed="0.22" departDelay="34.00" arrival="181.00" arrivalLane="E3_0" arrivalPos="90.46" arrivalSpeed="29.79" duration="116.00" routeLength="1314.99" waitingTime="0.00" waitingCount="0" stopTime="0.00" timeLoss="38.97" rerouteNo="0" devices="tripinfo_34" vType="DEFAULT_VEHTYPE" speedFactor="1.07" vaporized=""/>
    <tripinfo id="6" depart="7.00" departLane="E0_0" departPos="5.10" departSpeed="14.30" departDelay="1.00" arrival="192.00" arrivalLane="E3_0" arrivalPos="90.46" arrivalSpeed="25.48" duration="185.00" routeLength="1317.38" waitingTime="78.00" waitingCount="2" stopTime="0.00" timeLoss="105.20" rerouteNo="0" devices="tripinfo_6" vType="DEFAULT_VEHTYPE" speedFactor="1.08" vaporized=""/>
    <tripinfo id="36" depart="71.00" departLane="E0_0" departPos="5.10" departSpeed="1.26" departDelay="33.00" arrival="198.00" arrivalLane="E3_0" arrivalPos="90.46" arrivalSpeed="22.42" duration="127.00" routeLength="1314.99" waitingTime="0.00" waitingCount="0" stopTime="0.00" timeLoss="20.36" rerouteNo="0" devices="tripinfo_36" vType="DEFAULT_VEHTYPE" speedFactor="0.77" vaporized=""/>
    <tripinfo id="38" depart="76.00" departLane="E0_0" departPos="5.10" departSpeed="2.83" departDelay="38.00" arrival="200.00" arrivalLane="E3_0" arrivalPos="90.46" arrivalSpeed="26.19" duration="124.00" routeLength="1314.99" waitingTime="0.00" waitingCount="0" stopTime="0.00" timeLoss="43.08" rerouteNo="0" devices="tripinfo_38" vType="DEFAULT_VEHTYPE" speedFactor="1.02" vaporized=""/>
    <tripinfo id="39" depart="79.00" departLane="E0_0" departPos="5.10" departSpeed="5.07" departDelay="40.00" arrival="201.00" arrivalLane="E3_0" arrivalPos="90.46" arrivalSpeed="25.48" duration="122.00" routeLength="1314.99" waitingTime="0.00" waitingCount="0" stopTime="0.00" timeLoss="28.44" rerouteNo="0" devices="tripinfo_39" vType="DEFAULT_VEHTYPE" speedFactor="0.88" vaporized=""/>
    <tripinfo id="40" depart="81.00" departLane="E0_0" departPos="5.10" departSpeed="3.74" departDelay="41.00" arrival="203.00" arrivalLane="E3_0" arrivalPos="90.46" arrivalSpeed="25.85" duration="122.00" routeLength="1314.99" waitingTime="0.00" waitingCount="0" stopTime="0.00" timeLoss="44.19" rerouteNo="0" devices="tripinfo_40" vType="DEFAULT_VEHTYPE" speedFactor="1.06" vaporized=""/>
    <tripinfo id="41" depart="83.00" departLane="E0_0" departPos="5.10" departSpeed="1.40" departDelay="42.00" arrival="204.00" arrivalLane="E3_0" arrivalPos="90.46" arrivalSpeed="27.00" duration="121.00" routeLength="1314.99" waitingTime="0.00" waitingCount="0" stopTime="0.00" timeLoss="50.38" rerouteNo="0" devices="tripinfo_41" vType="DEFAULT_VEHTYPE" speedFactor="1.17" vaporized=""/>
    <tripinfo id="42" depart="86.00" departLane="E0_0" departPos="5.10" departSpeed="1.39" departDelay="45.00" arrival="205.00" arrivalLane="E3_0" arrivalPos="90.46" arrivalSpeed="26.66" duration="119.00" routeLength="1314.99" waitingTime="0.00" waitingCount="0" stopTime="0.00" timeLoss="40.89" rerouteNo="0" devices="tripinfo_42" vType="DEFAULT_VEHTYPE" speedFactor="1.05" vaporized=""/>
    <tripinfo id="43" depart="89.00" departLane="E0_0" departPos="5.10" departSpeed="4.75" departDelay="47.00" arrival="207.00" arrivalLane="E3_0" arrivalPos="90.46" arrivalSpeed="27.82" duration="118.00" routeLength="1314.99" waitingTime="0.00" waitingCount="0" stopTime="0.00" timeLoss="35.72" rerouteNo="0" devices="tripinfo_43" vType="DEFAULT_VEHTYPE" speedFactor="1.00" vaporized=""/>
    <tripinfo id="44" depart="91.00" departLane="E0_0" departPos="5.10" departSpeed="1.35" departDelay="47.00" arrival="208.00" arrivalLane="E3_0" arrivalPos="90.46" arrivalSpeed="27.85" duration="117.00" routeLength="1314.99" waitingTime="0.00" waitingCount="0" stopTime="0.00" timeLoss="42.19" rerouteNo="0" devices="tripinfo_44" vType="DEFAULT_VEHTYPE" speedFactor="1.10" vaporized=""/>
    <tripinfo id="45" depart="94.00" departLane="E0_0" departPos="5.10" departSpeed="1.05" departDelay="50.00" arrival="210.00" arrivalLane="E3_0" arrivalPos="90.46" arrivalSpeed="26.90" duration="116.00" routeLength="1314.99" waitingTime="0.00" waitingCount="0" stopTime="0.00" timeLoss="24.20" rerouteNo="0" devices="tripinfo_45" vType="DEFAULT_VEHTYPE" speedFactor="0.90" vaporized=""/>
    <tripinfo id="46" depart="98.00" departLane="E0_0" departPos="5.10" departSpeed="5.78" departDelay="53.00" arrival="211.00" arrivalLane="E3_0" arrivalPos="90.46" arrivalSpeed="28.50" duration="113.00" routeLength="1314.99" waitingTime="0.00" waitingCount="0" stopTime="0.00" timeLoss="27.83" rerouteNo="0" devices="tripinfo_46" vType="DEFAULT_VEHTYPE" speedFactor="0.96" vaporized=""/>
    <tripinfo id="49" depart="104.00" departLane="E0_0" departPos="5.10" departSpeed="7.66" departDelay="54.00" arrival="213.00" arrivalLane="E3_0" arrivalPos="90.46" arrivalSpeed="29.99" duration="109.00" routeLength="1314.99" waitingTime="0.00" waitingCount="0" stopTime="0.00" timeLoss="35.05" rerouteNo="0" devices="tripinfo_49" vType="DEFAULT_VEHTYPE" speedFactor="1.12" vaporized=""/>
    <tripinfo id="50" depart="106.00" departLane="E0_0" departPos="5.10" departSpeed="8.42" departDelay="53.00" arrival="214.00" arrivalLane="E3_0" arrivalPos="90.46" arrivalSpeed="28.79" duration="108.00" routeLength="1314.99" waitingTime="0.00" waitingCount="0" stopTime="0.00" timeLoss="25.44" rerouteNo="0" devices="tripinfo_50" vType="DEFAULT_VEHTYPE" speedFactor="1.00" vaporized=""/>
    <tripinfo id="51" depart="108.00" departLane="E0_0" departPos="5.10" departSpeed="9.16" departDelay="54.00" arrival="216.00" arrivalLane="E3_0" arrivalPos="90.46" arrivalSpeed="28.86" duration="108.00" routeLength="1314.99" waitingTime="0.00" waitingCount="0" stopTime="0.00" timeLoss="24.16" rerouteNo="0" devices="tripinfo_51" vType="DEFAULT_VEHTYPE" speedFactor="0.99" vaporized=""/>
    <tripinfo id="53" depart="111.00" departLane="E0_0" departPos="5.10" departSpeed="3.65" departDelay="56.00" arrival="222.00" arrivalLane="E3_0" arrivalPos="90.46" arrivalSpeed="26.10" duration="111.00" routeLength="1314.99" waitingTime="0.00" waitingCount="0" stopTime="0.00" timeLoss="20.85" rerouteNo="0" devices="tripinfo_53" vType="DEFAULT_VEHTYPE" speedFactor="0.91" vaporized=""/>
    <tripinfo id="54" depart="114.00" departLane="E0_0" departPos="5.10" departSpeed="5.88" departDelay="59.00" arrival="224.00" arrivalLane="E3_0" arrivalPos="90.46" arrivalSpeed="28.33" duration="110.00" routeLength="1314.99" waitingTime="0.00" waitingCount="0" stopTime="0.00" timeLoss="22.86" rerouteNo="0" devices="tripinfo_54" vType="DEFAULT_VEHTYPE" speedFactor="0.95" vaporized=""/>
    <tripinfo id="56" depart="118.00" departLane="E0_0" departPos="5.10" departSpeed="5.94" departDelay="61.00" arrival="229.00" arrivalLane="E3_0" arrivalPos="90.46" arrivalSpeed="27.75" duration="111.00" routeLength="1314.99" waitingTime="0.00" waitingCount="0" stopTime="0.00" timeLoss="22.24" rerouteNo="0" devices="tripinfo_56" vType="DEFAULT_VEHTYPE" speedFactor="0.93" vaporized=""/>
    <tripinfo id="60" depart="130.00" departLane="E0_0" departPos="5.10" departSpeed="6.63" departDelay="70.00" arrival="238.00" arrivalLane="E3_0" arrivalPos="90.46" arrivalSpeed="26.99" duration="108.00" routeLength="1314.99" waitingTime="0.00" waitingCount="0" stopTime="0.00" timeLoss="18.24" rerouteNo="0" devices="tripinfo_60" vType="DEFAULT_VEHTYPE" speedFactor="0.92" vaporized=""/>
    <tripinfo id="62" depart="134.00" departLane="E0_0" departPos="5.10" departSpeed="7.78" departDelay="72.00" arrival="243.00" arrivalLane="E3_0" arrivalPos="90.46" arrivalSpeed="26.79" duration="109.00" routeLength="1314.99" waitingTime="0.00" waitingCount="0" stopTime="0.00" timeLoss="17.53" rerouteNo="0" devices="tripinfo_62" vType="DEFAULT_VEHTYPE" speedFactor="0.90" vaporized=""/>
    <tripinfo id="64" depart="138.00" departLane="E0_0" departPos="5.10" departSpeed="7.84" departDelay="74.00" arrival="244.00" arrivalLane="E3_0" arrivalPos="90.46" arrivalSpeed="28.75" duration="106.00" routeLength="1314.99" waitingTime="0.00" waitingCount="0" stopTime="0.00" timeLoss="30.54" rerouteNo="0" devices="tripinfo_64" vType="DEFAULT_VEHTYPE" speedFactor="1.08" vaporized=""/>
    <tripinfo id="65" depart="140.00" departLane="E0_0" departPos="5.10" departSpeed="7.92" departDelay="76.00" arrival="246.00" arrivalLane="E3_0" arrivalPos="90.46" arrivalSpeed="28.40" duration="106.00" routeLength="1314.99" waitingTime="0.00" waitingCount="0" stopTime="0.00" timeLoss="21.38" rerouteNo="0" devices="tripinfo_65" vType="DEFAULT_VEHTYPE" speedFactor="0.98" vaporized=""/>
    <tripinfo id="66" depart="141.00" departLane="E0_0" departPos="5.10" departSpeed="3.63" departDelay="77.00" arrival="247.00" arrivalLane="E3_0" arrivalPos="90.46" arrivalSpeed="29.27" duration="106.00" routeLength="1314.99" waitingTime="0.00" waitingCount="0" stopTime="0.00" timeLoss="21.96" rerouteNo="0" devices="tripinfo_66" vType="DEFAULT_VEHTYPE" speedFactor="0.98" vaporized=""/>
    <tripinfo id="68" depart="146.00" departLane="E0_0" departPos="5.10" departSpeed="3.16" departDelay="78.00" arrival="255.00" arrivalLane="E3_0" arrivalPos="90.46" arrivalSpeed="27.62" duration="109.00" routeLength="1314.99" waitingTime="0.00" waitingCount="0" stopTime="0.00" timeLoss="21.71" rerouteNo="0" devices="tripinfo_68" vType="DEFAULT_VEHTYPE" speedFactor="0.94" vaporized=""/>
    <tripinfo id="8" depart="9.00" departLane="E0_0" departPos="5.10" departSpeed="7.90" departDelay="2.00" arrival="264.00" arrivalLane="E3_0" arrivalPos="90.46" arrivalSpeed="23.40" duration="255.00" routeLength="1317.38" waitingTime="136.00" waitingCount="3" stopTime="0.00" timeLoss="171.17" rerouteNo="0" devices="tripinfo_8" vType="DEFAULT_VEHTYPE" speedFactor="1.02" vaporized=""/>
    <tripinfo id="69" depart="149.00" departLane="E0_0" departPos="5.10" departSpeed="6.66" departDelay="79.00" arrival="268.00" arrivalLane="E3_0" arrivalPos="90.46" arrivalSpeed="23.79" duration="119.00" routeLength="1314.99" waitingTime="0.00" waitingCount="0" stopTime="0.00" timeLoss="20.38" rerouteNo="0" devices="tripinfo_69" vType="DEFAULT_VEHTYPE" speedFactor="0.83" vaporized=""/>
    <tripinfo id="75" depart="165.00" departLane="E0_0" departPos="5.10" departSpeed="5.92" departDelay="88.00" arrival="269.00" arrivalLane="E3_0" arrivalPos="90.46" arrivalSpeed="26.28" duration="104.00" routeLength="1314.99" waitingTime="0.00" waitingCount="0" stopTime="0.00" timeLoss="29.41" rerouteNo="0" devices="tripinfo_75" vType="DEFAULT_VEHTYPE" speedFactor="1.10" vaporized=""/>
    <tripinfo id="76" depart="167.00" departLane="E0_0" departPos="5.10" departSpeed="6.87" departDelay="89.00" arrival="271.00" arrivalLane="E3_0" arrivalPos="90.46" arrivalSpeed="28.07" duration="104.00" routeLength="1314.99" waitingTime="0.00" waitingCount="0" stopTime="0.00" timeLoss="31.95" rerouteNo="0" devices="tripinfo_76" vType="DEFAULT_VEHTYPE" speedFactor="1.14" vaporized=""/>
    <tripinfo id="77" depart="169.00" departLane="E0_0" departPos="5.10" departSpeed="7.91" departDelay="89.00" arrival="272.00" arrivalLane="E3_0" arrivalPos="90.46" arrivalSpeed="28.06" duration="103.00" routeLength="1314.99" waitingTime="0.00" waitingCount="0" stopTime="0.00" timeLoss="18.30" rerouteNo="0" devices="tripinfo_77" vType="DEFAULT_VEHTYPE" speedFactor="0.97" vaporized=""/>
    <tripinfo id="80" depart="174.00" departLane="E0_0" departPos="5.10" departSpeed="3.94" departDelay="88.00" arrival="274.00" arrivalLane="E3_0" arrivalPos="90.46" arrivalSpeed="29.92" duration="100.00" routeLength="1314.99" waitingTime="0.00" waitingCount="0" stopTime="0.00" timeLoss="23.30" rerouteNo="0" devices="tripinfo_80" vType="DEFAULT_VEHTYPE" speedFactor="1.08" vaporized=""/>
    <tripinfo id="83" depart="182.00" departLane="E0_0" departPos="5.10" departSpeed="6.88" departDelay="91.00" arrival="278.00" arrivalLane="E3_0" arrivalPos="90.46" arrivalSpeed="31.16" duration="96.00" routeLength="1314.99" waitingTime="0.00" waitingCount="0" stopTime="0.00" timeLoss="18.32" rerouteNo="0" devices="tripinfo_83" vType="DEFAULT_VEHTYPE" speedFactor="1.06" vaporized=""/>
    <tripinfo id="11" depart="15.00" departLane="E0_0" departPos="5.10" departSpeed="5.09" departDelay="6.00" arrival="288.00" arrivalLane="E3_0" arrivalPos="90.46" arrivalSpeed="23.80" duration="273.00" routeLength="1317.38" waitingTime="151.00" waitingCount="4" stopTime="0.00" timeLoss="196.52" rerouteNo="0" devices="tripinfo_11" vType="DEFAULT_VEHTYPE" speedFactor="1.12" vaporized=""/>
    <tripinfo id="12" depart="17.00" departLane="E0_0" departPos="5.10" departSpeed="4.46" departDelay="6.00" arrival="290.00" arrivalLane="E3_0" arrivalPos="90.46" arrivalSpeed="26.10" duration="273.00" routeLength="1317.38" waitingTime="136.00" waitingCount="4" stopTime="0.00" timeLoss="177.54" rerouteNo="0" devices="tripinfo_12" vType="DEFAULT_VEHTYPE" speedFactor="0.90" vaporized=""/>
    <tripinfo id="14" depart="22.00" departLane="E0_0" departPos="5.10" departSpeed="3.24" departDelay="10.00" arrival="291.00" arrivalLane="E3_0" arrivalPos="90.46" arrivalSpeed="26.08" duration="269.00" routeLength="1317.38" waitingTime="132.00" waitingCount="4" stopTime="0.00" timeLoss="186.91" rerouteNo="0" devices="tripinfo_14" vType="DEFAULT_VEHTYPE" speedFactor="1.04" vaporized=""/>
    <tripinfo id="85" depart="186.00" departLane="E0_0" departPos="5.10" departSpeed="6.84" departDelay="94.00" arrival="298.00" arrivalLane="E3_0" arrivalPos="90.46" arrivalSpeed="24.69" duration="112.00" routeLength="1314.99" waitingTime="0.00" waitingCount="0" stopTime="0.00" timeLoss="17.22" rerouteNo="0" devices="tripinfo_85" vType="DEFAULT_VEHTYPE" speedFactor="0.87" vaporized=""/>
    <tripinfo id="86" depart="188.00" departLane="E0_0" departPos="5.10" departSpeed="8.13" departDelay="94.00" arrival="300.00" arrivalLane="E3_0" arrivalPos="90.46" arrivalSpeed="28.89" duration="112.00" routeLength="1314.99" waitingTime="0.00" waitingCount="0" stopTime="0.00" timeLoss="30.93" rerouteNo="0" devices="tripinfo_86" vType="DEFAULT_VEHTYPE" speedFactor="1.02" vaporized=""/>
    <tripinfo id="88" depart="191.00" departLane="E0_0" departPos="5.10" departSpeed="1.41" departDelay="94.00" arrival="301.00" arrivalLane="E3_0" arrivalPos="90.46" arrivalSpeed="29.11" duration="110.00" routeLength="1314.99" waitingTime="0.00" waitingCount="0" stopTime="0.00" timeLoss="25.21" rerouteNo="0" devices="tripinfo_88" vType="DEFAULT_VEHTYPE" speedFactor="0.97" vaporized=""/>
    <tripinfo id="89" depart="194.00" departLane="E0_0" departPos="5.10" departSpeed="0.71" departDelay="97.00" arrival="302.00" arrivalLane="E3_0" arrivalPos="90.46" arrivalSpeed="28.80" duration="108.00" routeLength="1314.99" waitingTime="0.00" waitingCount="0" stopTime="0.00" timeLoss="38.40" rerouteNo="0" devices="tripinfo_89" vType="DEFAULT_VEHTYPE" speedFactor="1.18" vaporized=""/>
    <tripinfo id="92" depart="202.00" departLane="E0_0" departPos="5.10" departSpeed="4.58" departDelay="104.00" arrival="304.00" arrivalLane="E3_0" arrivalPos="90.46" arrivalSpeed="28.43" duration="102.00" routeLength="1314.99" waitingTime="0.00" waitingCount="0" stopTime="0.00" timeLoss="17.86" rerouteNo="0" devices="tripinfo_92" vType="DEFAULT_VEHTYPE" speedFactor="0.98" vaporized=""/>
    <tripinfo id="93" depart="204.00" departLane="E0_0" departPos="5.10" departSpeed="2.79" departDelay="105.00" arrival="309.00" arrivalLane="E3_0" arrivalPos="90.46" arrivalSpeed="28.07" duration="105.00" routeLength="1314.99" waitingTime="0.00" waitingCount="0" stopTime="0.00" timeLoss="17.56" rerouteNo="0" devices="tripinfo_93" vType="DEFAULT_VEHTYPE" speedFactor="0.94" vaporized=""/>
    <tripinfo id="94" depart="207.00" departLane="E0_0" departPos="5.10" departSpeed="3.91" departDelay="108.00" arrival="310.00" arrivalLane="E3_0" arrivalPos="90.46" arrivalSpeed="28.59" duration="103.00" routeLength="1314.99" waitingTime="0.00" waitingCount="0" stopTime="0.00" timeLoss="23.68" rerouteNo="0" devices="tripinfo_94" vType="DEFAULT_VEHTYPE" speedFactor="1.03" vaporized=""/>
    <tripinfo id="20" depart="37.00" departLane="E0_0" departPos="5.10" departSpeed="7.82" departDelay="20.00" arrival="319.00" arrivalLane="E3_0" arrivalPos="90.46" arrivalSpeed="23.46" duration="282.00" routeLength="1317.38" waitingTime="147.00" waitingCount="5" stopTime="0.00" timeLoss="196.98" rerouteNo="0" devices="tripinfo_20" vType="DEFAULT_VEHTYPE" speedFactor="1.01" vaporized=""/>
    <tripinfo id="96" depart="212.00" departLane="E0_0" departPos="5.10" departSpeed="7.02" departDelay="112.00" arrival="323.00" arrivalLane="E3_0" arrivalPos="90.46" arrivalSpeed="25.76" duration="111.00" routeLength="1314.99" waitingTime="0.00" waitingCount="0" stopTime="0.00" timeLoss="17.63" rerouteNo="0" devices="tripinfo_96" vType="DEFAULT_VEHTYPE" speedFactor="0.89" vaporized=""/>
    <tripinfo id="97" depart="214.00" departLane="E0_0" departPos="5.10" departSpeed="7.80" departDelay="113.00" arrival="324.00" arrivalLane="E3_0" arrivalPos="90.46" arrivalSpeed="27.84" duration="110.00" routeLength="1314.99" waitingTime="0.00" waitingCount="0" stopTime="0.00" timeLoss="30.39" rerouteNo="0" devices="tripinfo_97" vType="DEFAULT_VEHTYPE" speedFactor="1.03" vaporized=""/>
    <tripinfo id="100" depart="219.00" departLane="E0_0" departPos="5.10" departSpeed="2.09" departDelay="117.00" arrival="325.00" arrivalLane="E3_0" arrivalPos="90.46" arrivalSpeed="27.95" duration="106.00" routeLength="1314.99" waitingTime="0.00" waitingCount="0" stopTime="0.00" timeLoss="31.89" rerouteNo="0" devices="tripinfo_100" vType="DEFAULT_VEHTYPE" speedFactor="1.10" vaporized=""/>
    <tripinfo id="102" depart="225.00" departLane="E0_0" departPos="5.10" departSpeed="5.07" departDelay="120.00" arrival="342.00" arrivalLane="E3_0" arrivalPos="90.46" arrivalSpeed="24.11" duration="117.00" routeLength="1314.99" waitingTime="0.00" waitingCount="0" stopTime="0.00" timeLoss="18.54" rerouteNo="0" devices="tripinfo_102" vType="DEFAULT_VEHTYPE" speedFactor="0.84" vaporized=""/>
    <tripinfo id="104" depart="229.00" departLane="E0_0" departPos="5.10" departSpeed="2.20" departDelay="123.00" arrival="343.00" arrivalLane="E3_0" arrivalPos="90.46" arrivalSpeed="26.17" duration="114.00" routeLength="1314.99" waitingTime="0.00" waitingCount="0" stopTime="0.00" timeLoss="34.79" rerouteNo="0" devices="tripinfo_104" vType="DEFAULT_VEHTYPE" speedFactor="1.04" vaporized=""/>
    <tripinfo id="106" depart="234.00" departLane="E0_0" departPos="5.10" departSpeed="1.68" departDelay="127.00" arrival="345.00" arrivalLane="E3_0" arrivalPos="90.46" arrivalSpeed="27.57" duration="111.00" routeLength="1314.99" waitingTime="0.00" waitingCount="0" stopTime="0.00" timeLoss="24.57" rerouteNo="0" devices="tripinfo_106" vType="DEFAULT_VEHTYPE" speedFactor="0.95" vaporized=""/>
    <tripinfo id="110" depart="244.00" departLane="E0_0" departPos="5.10" departSpeed="6.78" departDelay="132.00" arrival="346.00" arrivalLane="E3_0" arrivalPos="90.46" arrivalSpeed="27.66" duration="102.00" routeLength="1314.99" waitingTime="0.00" waitingCount="0" stopTime="0.00" timeLoss="21.09" rerouteNo="0" devices="tripinfo_110" vType="DEFAULT_VEHTYPE" speedFactor="1.01" vaporized=""/>
    <tripinfo id="111" depart="246.00" departLane="E0_0" departPos="5.10" departSpeed="6.57" departDelay="133.00" arrival="348.00" arrivalLane="E3_0" arrivalPos="90.46" arrivalSpeed="28.34" duration="102.00" routeLength="1314.99" waitingTime="0.00" waitingCount="0" stopTime="0.00" timeLoss="28.87" rerouteNo="0" devices="tripinfo_111" vType="DEFAULT_VEHTYPE" speedFactor="1.13" vaporized=""/>
    <tripinfo id="112" depart="248.00" departLane="E0_0" departPos="5.10" departSpeed="7.31" departDelay="134.00" arrival="349.00" arrivalLane="E3_0" arrivalPos="90.46" arrivalSpeed="29.54" duration="101.00" routeLength="1314.99" waitingTime="0.00" waitingCount="0" stopTime="0.00" timeLoss="33.26" rerouteNo="0" devices="tripinfo_112" vType="DEFAULT_VEHTYPE" speedFactor="1.21" vaporized=""/>