<?xml version="1.0" encoding="UTF-8"?>

<!-- generated on 2023-04-30 00:54:03 by Eclipse SUMO sumo Version 1.16.0
<configuration xmlns:xsi="http://www.w3.org/2001/XMLSchema-instance" xsi:noNamespaceSchemaLocation="http://sumo.dlr.de/xsd/sumoConfiguration.xsd">

    <input>
        <net-file value="C:\Users\Local_Man\Desktop\Stolen%20Music\school%20stuff%20for%20college\Semester%2015%20(UH%20Graduate%20School)\COSC%206364%20Nikolaos\SUMO_Project\COSC6364_Project\configurations\maps\Braess_Homebrew_fixed1.net.xml"/>
        <route-files value="./configurations/Rounds/Braess_Homebrew_fixed1.net.xml-test-4/Macroscopic_DUE/018/Trips_File_018.rou.xml"/>
    </input>

    <output>
        <summary-output value="./configurations/Rounds/Braess_Homebrew_fixed1.net.xml-test-4/Macroscopic_DUE/018/summary.xml"/>
        <tripinfo-output value="./configurations/Rounds/Braess_Homebrew_fixed1.net.xml-test-4/Macroscopic_DUE/018/trips.trips.xml"/>
        <statistic-output value="./configurations/Rounds/Braess_Homebrew_fixed1.net.xml-test-4/Macroscopic_DUE/018/stats_output.xml"/>
    </output>

    <time>
        <begin value="0"/>
    </time>

    <report>
        <log value="./configurations/Rounds/Braess_Homebrew_fixed1.net.xml-test-4/Macroscopic_DUE/018/log.sumo.log"/>
        <no-step-log value="true"/>
    </report>

    <gui_only>
        <quit-on-end value="true"/>
    </gui_only>

</configuration>
-->

<tripinfos xmlns:xsi="http://www.w3.org/2001/XMLSchema-instance" xsi:noNamespaceSchemaLocation="http://sumo.dlr.de/xsd/tripinfo_file.xsd">
    <tripinfo id="3" depart="5.00" departLane="E0_0" departPos="5.10" departSpeed="16.96" departDelay="1.00" arrival="91.00" arrivalLane="E3_0" arrivalPos="90.46" arrivalSpeed="31.61" duration="86.00" routeLength="1314.99" waitingTime="0.00" waitingCount="0" stopTime="0.00" timeLoss="9.79" rerouteNo="0" devices="tripinfo_3" vType="DEFAULT_VEHTYPE" speedFactor="1.08" vaporized=""/>
    <tripinfo id="5" depart="11.00" departLane="E0_0" departPos="5.10" departSpeed="20.92" departDelay="1.00" arrival="100.00" arrivalLane="E3_0" arrivalPos="90.46" arrivalSpeed="30.77" duration="89.00" routeLength="1314.99" waitingTime="0.00" waitingCount="0" stopTime="0.00" timeLoss="10.23" rerouteNo="0" devices="tripinfo_5" vType="DEFAULT_VEHTYPE" speedFactor="1.05" vaporized=""/>
    <tripinfo id="6" depart="12.00" departLane="E0_0" departPos="5.10" departSpeed="18.70" departDelay="2.00" arrival="102.00" arrivalLane="E3_0" arrivalPos="90.46" arrivalSpeed="32.07" duration="90.00" routeLength="1314.99" waitingTime="0.00" waitingCount="0" stopTime="0.00" timeLoss="13.34" rerouteNo="0" devices="tripinfo_6" vType="DEFAULT_VEHTYPE" speedFactor="1.08" vaporized=""/>
    <tripinfo id="8" depart="14.00" departLane="E0_0" departPos="5.10" departSpeed="13.75" departDelay="3.00" arrival="109.00" arrivalLane="E3_0" arrivalPos="90.46" arrivalSpeed="29.92" duration="95.00" routeLength="1314.99" waitingTime="0.00" waitingCount="0" stopTime="0.00" timeLoss="14.53" rerouteNo="0" devices="tripinfo_8" vType="DEFAULT_VEHTYPE" speedFactor="1.02" vaporized=""/>
    <tripinfo id="11" depart="18.00" departLane="E0_0" departPos="5.10" departSpeed="8.43" departDelay="0.00" arrival="111.00" arrivalLane="E3_0" arrivalPos="90.46" arrivalSpeed="32.55" duration="93.00" routeLength="1314.99" waitingTime="0.00" waitingCount="0" stopTime="0.00" timeLoss="19.29" rerouteNo="0" devices="tripinfo_11" vType="DEFAULT_VEHTYPE" speedFactor="1.12" vaporized=""/>
    <tripinfo id="2" depart="4.00" departLane="E0_0" departPos="5.10" departSpeed="19.50" departDelay="0.00" arrival="121.00" arrivalLane="E3_0" arrivalPos="90.46" arrivalSpeed="24.21" duration="117.00" routeLength="1317.38" waitingTime="13.00" waitingCount="1" stopTime="0.00" timeLoss="28.58" rerouteNo="0" devices="tripinfo_2" vType="DEFAULT_VEHTYPE" speedFactor="0.98" vaporized=""/>
    <tripinfo id="12" depart="19.00" departLane="E0_0" departPos="5.10" departSpeed="3.65" departDelay="1.00" arrival="128.00" arrivalLane="E3_0" arrivalPos="90.46" arrivalSpeed="26.81" duration="109.00" routeLength="1314.99" waitingTime="0.00" waitingCount="0" stopTime="0.00" timeLoss="18.02" rerouteNo="0" devices="tripinfo_12" vType="DEFAULT_VEHTYPE" speedFactor="0.90" vaporized=""/>
    <tripinfo id="14" depart="24.00" departLane="E0_0" departPos="5.10" departSpeed="4.02" departDelay="5.00" arrival="130.00" arrivalLane="E3_0" arrivalPos="90.46" arrivalSpeed="29.75" duration="106.00" routeLength="1314.99" waitingTime="0.00" waitingCount="0" stopTime="0.00" timeLoss="26.88" rerouteNo="0" devices="tripinfo_14" vType="DEFAULT_VEHTYPE" speedFactor="1.04" vaporized=""/>
    <tripinfo id="18" depart="32.00" departLane="E0_0" departPos="5.10" departSpeed="3.84" departDelay="9.00" arrival="131.00" arrivalLane="E3_0" arrivalPos="90.46" arrivalSpeed="29.83" duration="99.00" routeLength="1314.99" waitingTime="0.00" waitingCount="0" stopTime="0.00" timeLoss="19.49" rerouteNo="0" devices="tripinfo_18" vType="DEFAULT_VEHTYPE" speedFactor="1.03" vaporized=""/>
    <tripinfo id="20" depart="36.00" departLane="E0_0" departPos="5.10" departSpeed="2.67" departDelay="12.00" arrival="137.00" arrivalLane="E3_0" arrivalPos="90.46" arrivalSpeed="29.26" duration="101.00" routeLength="1314.99" waitingTime="0.00" waitingCount="0" stopTime="0.00" timeLoss="19.38" rerouteNo="0" devices="tripinfo_20" vType="DEFAULT_VEHTYPE" speedFactor="1.01" vaporized=""/>
    <tripinfo id="4" depart="10.00" departLane="E0_0" departPos="5.10" departSpeed="24.01" departDelay="0.00" arrival="146.00" arrivalLane="E3_0" arrivalPos="90.46" arrivalSpeed="24.89" duration="136.00" routeLength="1317.38" waitingTime="32.00" waitingCount="2" stopTime="0.00" timeLoss="64.81" rerouteNo="0" devices="tripinfo_4" vType="DEFAULT_VEHTYPE" speedFactor="1.20" vaporized=""/>
    <tripinfo id="21" depart="39.00" departLane="E0_0" departPos="5.10" departSpeed="5.59" departDelay="14.00" arrival="152.00" arrivalLane="E3_0" arrivalPos="90.46" arrivalSpeed="25.44" duration="113.00" routeLength="1314.99" waitingTime="0.00" waitingCount="0" stopTime="0.00" timeLoss="18.95" rerouteNo="0" devices="tripinfo_21" vType="DEFAULT_VEHTYPE" speedFactor="0.87" vaporized=""/>
    <tripinfo id="22" depart="41.00" departLane="E0_0" departPos="5.10" departSpeed="4.44" departDelay="15.00" arrival="154.00" arrivalLane="E3_0" arrivalPos="90.46" arrivalSpeed="30.00" duration="113.00" routeLength="1314.99" waitingTime="0.00" waitingCount="0" stopTime="0.00" timeLoss="32.94" rerouteNo="0" devices="tripinfo_22" vType="DEFAULT_VEHTYPE" speedFactor="1.03" vaporized=""/>
    <tripinfo id="23" depart="43.00" departLane="E0_0" departPos="5.10" departSpeed="2.87" departDelay="14.00" arrival="155.00" arrivalLane="E3_0" arrivalPos="90.46" arrivalSpeed="29.74" duration="112.00" routeLength="1314.99" waitingTime="0.00" waitingCount="0" stopTime="0.00" timeLoss="39.24" rerouteNo="0" devices="tripinfo_23" vType="DEFAULT_VEHTYPE" speedFactor="1.13" vaporized=""/>
    <tripinfo id="24" depart="46.00" departLane="E0_0" departPos="5.10" departSpeed="5.78" departDelay="17.00" arrival="158.00" arrivalLane="E3_0" arrivalPos="90.46" arrivalSpeed="25.64" duration="112.00" routeLength="1314.99" waitingTime="0.00" waitingCount="0" stopTime="0.00" timeLoss="20.02" rerouteNo="0" devices="tripinfo_24" vType="DEFAULT_VEHTYPE" speedFactor="0.89" vaporized=""/>
    <tripinfo id="25" depart="48.00" departLane="E0_0" departPos="5.10" departSpeed="5.40" departDelay="18.00" arrival="159.00" arrivalLane="E3_0" arrivalPos="90.46" arrivalSpeed="28.21" duration="111.00" routeLength="1314.99" waitingTime="0.00" waitingCount="0" stopTime="0.00" timeLoss="39.83" rerouteNo="0" devices="tripinfo_25" vType="DEFAULT_VEHTYPE" speedFactor="1.15" vaporized=""/>
    <tripinfo id="26" depart="50.00" departLane="E0_0" departPos="5.10" departSpeed="4.24" departDelay="18.00" arrival="161.00" arrivalLane="E3_0" arrivalPos="90.46" arrivalSpeed="29.73" duration="111.00" routeLength="1314.99" waitingTime="0.00" waitingCount="0" stopTime="0.00" timeLoss="37.36" rerouteNo="0" devices="tripinfo_26" vType="DEFAULT_VEHTYPE" speedFactor="1.12" vaporized=""/>
    <tripinfo id="27" depart="52.00" departLane="E0_0" departPos="5.10" departSpeed="3.72" departDelay="20.00" arrival="162.00" arrivalLane="E3_0" arrivalPos="90.46" arrivalSpeed="29.01" duration="110.00" routeLength="1314.99" waitingTime="0.00" waitingCount="0" stopTime="0.00" timeLoss="27.34" rerouteNo="0" devices="tripinfo_27" vType="DEFAULT_VEHTYPE" speedFactor="0.99" vaporized=""/>
    <tripinfo id="28" depart="55.00" departLane="E0_0" departPos="5.10" departSpeed="5.85" departDelay="23.00" arrival="164.00" arrivalLane="E3_0" arrivalPos="90.46" arrivalSpeed="28.83" duration="109.00" routeLength="1314.99" waitingTime="0.00" waitingCount="0" stopTime="0.00" timeLoss="23.83" rerouteNo="0" devices="tripinfo_28" vType="DEFAULT_VEHTYPE" speedFactor="0.97" vaporized=""/>
    <tripinfo id="30" depart="59.00" departLane="E0_0" departPos="5.10" departSpeed="5.95" departDelay="25.00" arrival="169.00" arrivalLane="E3_0" arrivalPos="90.46" arrivalSpeed="27.19" duration="110.00" routeLength="1314.99" waitingTime="0.00" waitingCount="0" stopTime="0.00" timeLoss="22.75" rerouteNo="0" devices="tripinfo_30" vType="DEFAULT_VEHTYPE" speedFactor="0.94" vaporized=""/>
    <tripinfo id="31" depart="61.00" departLane="E0_0" departPos="5.10" departSpeed="6.63" departDelay="27.00" arrival="170.00" arrivalLane="E3_0" arrivalPos="90.46" arrivalSpeed="29.10" duration="109.00" routeLength="1314.99" waitingTime="0.00" waitingCount="0" stopTime="0.00" timeLoss="35.10" rerouteNo="0" devices="tripinfo_31" vType="DEFAULT_VEHTYPE" speedFactor="1.10" vaporized=""/>
    <tripinfo id="33" depart="65.00" departLane="E0_0" departPos="5.10" departSpeed="6.91" departDelay="30.00" arrival="172.00" arrivalLane="E3_0" arrivalPos="90.46" arrivalSpeed="30.77" duration="107.00" routeLength="1314.99" waitingTime="0.00" waitingCount="0" stopTime="0.00" timeLoss="27.09" rerouteNo="0" devices="tripinfo_33" vType="DEFAULT_VEHTYPE" speedFactor="1.03" vaporized=""/>
    <tripinfo id="34" depart="67.00" departLane="E0_0" departPos="5.10" departSpeed="2.75" departDelay="31.00" arrival="173.00" arrivalLane="E3_0" arrivalPos="90.46" arrivalSpeed="31.41" duration="106.00" routeLength="1314.99" waitingTime="0.00" waitingCount="0" stopTime="0.00" timeLoss="28.94" rerouteNo="0" devices="tripinfo_34" vType="DEFAULT_VEHTYPE" speedFactor="1.07" vaporized=""/>
    <tripinfo id="35" depart="70.00" departLane="E0_0" departPos="5.10" departSpeed="4.77" departDelay="31.00" arrival="175.00" arrivalLane="E3_0" arrivalPos="90.46" arrivalSpeed="30.31" duration="105.00" routeLength="1314.99" waitingTime="0.00" waitingCount="0" stopTime="0.00" timeLoss="25.27" rerouteNo="0" devices="tripinfo_35" vType="DEFAULT_VEHTYPE" speedFactor="1.04" vaporized=""/>
    <tripinfo id="7" depart="13.00" departLane="E0_0" departPos="5.10" departSpeed="16.80" departDelay="2.00" arrival="184.00" arrivalLane="E3_0" arrivalPos="90.46" arrivalSpeed="23.78" duration="171.00" routeLength="1317.38" waitingTime="52.00" waitingCount="2" stopTime="0.00" timeLoss="79.44" rerouteNo="0" devices="tripinfo_7" vType="DEFAULT_VEHTYPE" speedFactor="0.94" vaporized=""/>
    <tripinfo id="37" depart="75.00" departLane="E0_0" departPos="5.10" departSpeed="5.22" departDelay="34.00" arrival="189.00" arrivalLane="E3_0" arrivalPos="90.46" arrivalSpeed="26.22" duration="114.00" routeLength="1314.99" waitingTime="0.00" waitingCount="0" stopTime="0.00" timeLoss="23.47" rerouteNo="0" devices="tripinfo_37" vType="DEFAULT_VEHTYPE" speedFactor="0.90" vaporized=""/>
    <tripinfo id="40" depart="83.00" departLane="E0_0" departPos="5.10" departSpeed="2.75" departDelay="32.00" arrival="191.00" arrivalLane="E3_0" arrivalPos="90.46" arrivalSpeed="28.37" duration="108.00" routeLength="1314.99" waitingTime="0.00" waitingCount="0" stopTime="0.00" timeLoss="30.46" rerouteNo="0" devices="tripinfo_40" vType="DEFAULT_VEHTYPE" speedFactor="1.06" vaporized=""/>
    <tripinfo id="41" depart="86.00" departLane="E0_0" departPos="5.10" departSpeed="2.95" departDelay="34.00" arrival="192.00" arrivalLane="E3_0" arrivalPos="90.46" arrivalSpeed="28.86" duration="106.00" routeLength="1314.99" waitingTime="0.00" waitingCount="0" stopTime="0.00" timeLoss="36.02" rerouteNo="0" devices="tripinfo_41" vType="DEFAULT_VEHTYPE" speedFactor="1.17" vaporized=""/>
    <tripinfo id="47" depart="101.00" departLane="E0_0" departPos="5.10" departSpeed="0.78" departDelay="42.00" arrival="202.00" arrivalLane="E3_0" arrivalPos="90.46" arrivalSpeed="29.44" duration="101.00" routeLength="1314.99" waitingTime="0.00" waitingCount="0" stopTime="0.00" timeLoss="20.16" rerouteNo="0" devices="tripinfo_47" vType="DEFAULT_VEHTYPE" speedFactor="1.02" vaporized=""/>
    <tripinfo id="48" depart="105.00" departLane="E0_0" departPos="5.10" departSpeed="6.07" departDelay="44.00" arrival="207.00" arrivalLane="E3_0" arrivalPos="90.46" arrivalSpeed="29.37" duration="102.00" routeLength="1314.99" waitingTime="0.00" waitingCount="0" stopTime="0.00" timeLoss="19.19" rerouteNo="0" devices="tripinfo_48" vType="DEFAULT_VEHTYPE" speedFactor="1.00" vaporized=""/>
    <tripinfo id="49" depart="107.00" departLane="E0_0" departPos="5.10" departSpeed="6.24" departDelay="45.00" arrival="208.00" arrivalLane="E3_0" arrivalPos="90.46" arrivalSpeed="30.41" duration="101.00" routeLength="1314.99" waitingTime="0.00" waitingCount="0" stopTime="0.00" timeLoss="27.34" rerouteNo="0" devices="tripinfo_49" vType="DEFAULT_VEHTYPE" speedFactor="1.12" vaporized=""/>
    <tripinfo id="52" depart="113.00" departLane="E0_0" departPos="5.10" departSpeed="7.29" departDelay="44.00" arrival="218.00" arrivalLane="E3_0" arrivalPos="90.46" arrivalSpeed="28.20" duration="105.00" routeLength="1314.99" waitingTime="0.00" waitingCount="0" stopTime="0.00" timeLoss="19.18" rerouteNo="0" devices="tripinfo_52" vType="DEFAULT_VEHTYPE" speedFactor="0.96" vaporized=""/>
    <tripinfo id="53" depart="115.00" departLane="E0_0" departPos="5.10" departSpeed="5.90" departDelay="46.00" arrival="225.00" arrivalLane="E3_0" arrivalPos="90.46" arrivalSpeed="26.96" duration="110.00" routeLength="1314.99" waitingTime="0.00" waitingCount="0" stopTime="0.00" timeLoss="19.62" rerouteNo="0" devices="tripinfo_53" vType="DEFAULT_VEHTYPE" speedFactor="0.91" vaporized=""/>
    <tripinfo id="54" depart="117.00" departLane="E0_0" departPos="5.10" departSpeed="6.57" departDelay="43.00" arrival="227.00" arrivalLane="E3_0" arrivalPos="90.46" arrivalSpeed="28.37" duration="110.00" routeLength="1314.99" waitingTime="0.00" waitingCount="0" stopTime="0.00" timeLoss="23.00" rerouteNo="0" devices="tripinfo_54" vType="DEFAULT_VEHTYPE" speedFactor="0.95" vaporized=""/>
    <tripinfo id="55" depart="119.00" departLane="E0_0" departPos="5.10" departSpeed="2.16" departDelay="45.00" arrival="228.00" arrivalLane="E3_0" arrivalPos="90.46" arrivalSpeed="28.74" duration="109.00" routeLength="1314.99" waitingTime="0.00" waitingCount="0" stopTime="0.00" timeLoss="28.59" rerouteNo="0" devices="tripinfo_55" vType="DEFAULT_VEHTYPE" speedFactor="1.02" vaporized=""/>
    <tripinfo id="57" depart="124.00" departLane="E0_0" departPos="5.10" departSpeed="0.73" departDelay="48.00" arrival="229.00" arrivalLane="E3_0" arrivalPos="90.46" arrivalSpeed="29.27" duration="105.00" routeLength="1314.99" waitingTime="0.00" waitingCount="0" stopTime="0.00" timeLoss="27.75" rerouteNo="0" devices="tripinfo_57" vType="DEFAULT_VEHTYPE" speedFactor="1.06" vaporized=""/>
    <tripinfo id="58" depart="127.00" departLane="E0_0" departPos="5.10" departSpeed="0.88" departDelay="50.00" arrival="231.00" arrivalLane="E3_0" arrivalPos="90.46" arrivalSpeed="30.33" duration="104.00" routeLength="1314.99" waitingTime="0.00" waitingCount="0" stopTime="0.00" timeLoss="30.19" rerouteNo="0" devices="tripinfo_58" vType="DEFAULT_VEHTYPE" speedFactor="1.12" vaporized=""/>
    <tripinfo id="59" depart="130.00" departLane="E0_0" departPos="5.10" departSpeed="0.08" departDelay="53.00" arrival="232.00" arrivalLane="E3_0" arrivalPos="90.46" arrivalSpeed="30.23" duration="102.00" routeLength="1314.99" waitingTime="1.00" waitingCount="1" stopTime="0.00" timeLoss="22.49" rerouteNo="0" devices="tripinfo_59" vType="DEFAULT_VEHTYPE" speedFactor="1.03" vaporized=""/>
    <tripinfo id="60" depart="134.00" departLane="E0_0" departPos="5.10" departSpeed="5.16" departDelay="56.00" arrival="241.00" arrivalLane="E3_0" arrivalPos="90.46" arrivalSpeed="26.44" duration="107.00" routeLength="1314.99" waitingTime="0.00" waitingCount="0" stopTime="0.00" timeLoss="18.20" rerouteNo="0" devices="tripinfo_60" vType="DEFAULT_VEHTYPE" speedFactor="0.92" vaporized=""/>
    <tripinfo id="61" depart="136.00" departLane="E0_0" departPos="5.10" departSpeed="4.56" departDelay="56.00" arrival="243.00" arrivalLane="E3_0" arrivalPos="90.46" arrivalSpeed="30.73" duration="107.00" routeLength="1314.99" waitingTime="0.00" waitingCount="0" stopTime="0.00" timeLoss="31.25" rerouteNo="0" devices="tripinfo_61" vType="DEFAULT_VEHTYPE" speedFactor="1.09" vaporized=""/>
    <tripinfo id="63" depart="140.00" departLane="E0_0" departPos="5.10" departSpeed="1.26" departDelay="58.00" arrival="244.00" arrivalLane="E3_0" arrivalPos="90.46" arrivalSpeed="30.42" duration="104.00" routeLength="1314.99" waitingTime="0.00" waitingCount="0" stopTime="0.00" timeLoss="23.52" rerouteNo="0" devices="tripinfo_63" vType="DEFAULT_VEHTYPE" speedFactor="1.02" vaporized=""/>
    <tripinfo id="64" depart="143.00" departLane="E0_0" departPos="5.10" departSpeed="1.85" departDelay="60.00" arrival="246.00" arrivalLane="E3_0" arrivalPos="90.46" arrivalSpeed="31.10" duration="103.00" routeLength="1314.99" waitingTime="0.00" waitingCount="0" stopTime="0.00" timeLoss="26.63" rerouteNo="0" devices="tripinfo_64" vType="DEFAULT_VEHTYPE" speedFactor="1.08" vaporized=""/>
    <tripinfo id="67" depart="151.00" departLane="E0_0" departPos="5.10" departSpeed="3.82" departDelay="65.00" arrival="251.00" arrivalLane="E3_0" arrivalPos="90.46" arrivalSpeed="30.13" duration="100.00" routeLength="1314.99" waitingTime="0.00" waitingCount="0" stopTime="0.00" timeLoss="17.70" rerouteNo="0" devices="tripinfo_67" vType="DEFAULT_VEHTYPE" speedFactor="1.01" vaporized=""/>
    <tripinfo id="9" depart="15.00" departLane="E0_0" departPos="5.10" departSpeed="10.50" departDelay="1.00" arrival="257.00" arrivalLane="E3_0" arrivalPos="90.46" arrivalSpeed="24.91" duration="242.00" routeLength="1317.38" waitingTime="118.00" waitingCount="3" stopTime="0.00" timeLoss="163.55" rerouteNo="0" devices="tripinfo_9" vType="DEFAULT_VEHTYPE" speedFactor="1.09" vaporized=""/>
    <tripinfo id="10" depart="17.00" departLane="E0_0" departPos="5.10" departSpeed="12.28" departDelay="0.00" arrival="260.00" arrivalLane="E3_0" arrivalPos="90.46" arrivalSpeed="26.13" duration="243.00" routeLength="1317.38" waitingTime="115.00" waitingCount="3" stopTime="0.00" timeLoss="149.68" rerouteNo="0" devices="tripinfo_10" vType="DEFAULT_VEHTYPE" speedFactor="0.92" vaporized=""/>
    <tripinfo id="13" depart="21.00" departLane="E0_0" departPos="5.10" departSpeed="1.48" departDelay="2.00" arrival="261.00" arrivalLane="E3_0" arrivalPos="90.46" arrivalSpeed="25.28" duration="240.00" routeLength="1317.38" waitingTime="109.00" waitingCount="3" stopTime="0.00" timeLoss="147.86" rerouteNo="0" devices="tripinfo_13" vType="DEFAULT_VEHTYPE" speedFactor="0.93" vaporized=""/>
    <tripinfo id="15" depart="26.00" departLane="E0_0" departPos="5.10" departSpeed="2.54" departDelay="6.00" arrival="265.00" arrivalLane="E3_0" arrivalPos="90.46" arrivalSpeed="25.14" duration="239.00" routeLength="1317.38" waitingTime="106.00" waitingCount="3" stopTime="0.00" timeLoss="147.07" rerouteNo="0" devices="tripinfo_15" vType="DEFAULT_VEHTYPE" speedFactor="0.94" vaporized=""/>
    <tripinfo id="69" depart="157.00" departLane="E0_0" departPos="5.10" departSpeed="6.77" departDelay="69.00" arrival="271.00" arrivalLane="E3_0" arrivalPos="90.46" arrivalSpeed="23.79" duration="114.00" routeLength="1314.99" waitingTime="0.00" waitingCount="0" stopTime="0.00" timeLoss="15.31" rerouteNo="0" devices="tripinfo_69" vType="DEFAULT_VEHTYPE" speedFactor="0.83" vaporized=""/>
    <tripinfo id="70" depart="159.00" departLane="E0_0" departPos="5.10" departSpeed="6.32" departDelay="71.00" arrival="273.00" arrivalLane="E3_0" arrivalPos="90.46" arrivalSpeed="28.43" duration="114.00" routeLength="1314.99" waitingTime="0.00" waitingCount="0" stopTime="0.00" timeLoss="35.09" rerouteNo="0" devices="tripinfo_70" vType="DEFAULT_VEHTYPE" speedFactor="1.05" vaporized=""/>
    <tripinfo id="71" depart="161.00" departLane="E0_0" departPos="5.10" departSpeed="7.31" departDelay="73.00" arrival="274.00" arrivalLane="E3_0" arrivalPos="90.46" arrivalSpeed="27.60" duration="113.00" routeLength="1314.99" waitingTime="0.00" waitingCount="0" stopTime="0.00" timeLoss="35.54" rerouteNo="0" devices="tripinfo_71" vType="DEFAULT_VEHTYPE" speedFactor="1.06" vaporized=""/>
    <tripinfo id="72" depart="163.00" departLane="E0_0" departPos="5.10" departSpeed="8.41" departDelay="74.00" arrival="277.00" arrivalLane="E3_0" arrivalPos="90.46" arrivalSpeed="25.36" duration="114.00" routeLength="1314.99" waitingTime="0.00" waitingCount="0" stopTime="0.00" timeLoss="18.49" rerouteNo="0" devices="tripinfo_72" vType="DEFAULT_VEHTYPE" speedFactor="0.86" vaporized=""/>
    <tripinfo id="73" depart="164.00" departLane="E0_0" departPos="5.10" departSpeed="3.04" departDelay="75.00" arrival="278.00" arrivalLane="E3_0" arrivalPos="90.46" arrivalSpeed="26.60" duration="114.00" routeLength="1314.99" waitingTime="0.00" waitingCount="0" stopTime="0.00" timeLoss="23.54" rerouteNo="0" devices="tripinfo_73" vType="DEFAULT_VEHTYPE" speedFactor="0.91" vaporized=""/>
    <tripinfo id="74" depart="167.00" departLane="E0_0" departPos="5.10" departSpeed="6.05" departDelay="76.00" arrival="280.00" arrivalLane="E3_0" arrivalPos="90.46" arrivalSpeed="28.52" duration="113.00" routeLength="1314.99" waitingTime="0.00" waitingCount="0" stopTime="0.00" timeLoss="40.74" rerouteNo="0" devices="tripinfo_74" vType="DEFAULT_VEHTYPE" speedFactor="1.14" vaporized=""/>
    <tripinfo id="77" depart="173.00" departLane="E0_0" departPos="5.10" departSpeed="8.40" departDelay="82.00" arrival="281.00" arrivalLane="E3_0" arrivalPos="90.46" arrivalSpeed="28.26" duration="108.00" routeLength="1314.99" waitingTime="0.00" waitingCount="0" stopTime="0.00" timeLoss="23.08" rerouteNo="0" devices="tripinfo_77" vType="DEFAULT_VEHTYPE" speedFactor="0.97" vaporized=""/>
    <tripinfo id="78" depart="174.00" departLane="E0_0" departPos="5.10" departSpeed="3.50" departDelay="82.00" arrival="282.00" arrivalLane="E3_0" arrivalPos="90.46" arrivalSpeed="28.17" duration="108.00" routeLength="1314.99" waitingTime="0.00" waitingCount="0" stopTime="0.00" timeLoss="21.91" rerouteNo="0" devices="tripinfo_78" vType="DEFAULT_VEHTYPE" speedFactor="0.95" vaporized=""/>
    <tripinfo id="79" depart="177.00" departLane="E0_0" departPos="5.10" departSpeed="5.35" departDelay="83.00" arrival="284.00" arrivalLane="E3_0" arrivalPos="90.46" arrivalSpeed="30.25" duration="107.00" routeLength="1314.99" waitingTime="0.00" waitingCount="0" stopTime="0.00" timeLoss="30.44" rerouteNo="0" devices="tripinfo_79" vType="DEFAULT_VEHTYPE" speedFactor="1.07" vaporized=""/>
    <tripinfo id="81" depart="181.00" departLane="E0_0" departPos="5.10" departSpeed="5.37" departDelay="84.00" arrival="285.00" arrivalLane="E3_0" arrivalPos="90.46" arrivalSpeed="30.76" duration="104.00" routeLength="1314.99" waitingTime="0.00" waitingCount="0" stopTime="0.00" timeLoss="24.97" rerouteNo="0" devices="tripinfo_81" vType="DEFAULT_VEHTYPE" speedFactor="1.03" vaporized=""/>
    <tripinfo id="82" depart="183.00" departLane="E0_0" departPos="5.10" departSpeed="4.80" departDelay="84.00" arrival="289.00" arrivalLane="E3_0" arrivalPos="90.46" arrivalSpeed="28.34" duration="106.00" routeLength="1314.99" waitingTime="0.00" waitingCount="0" stopTime="0.00" timeLoss="22.15" rerouteNo="0" devices="tripinfo_82" vType="DEFAULT_VEHTYPE" speedFactor="0.98" vaporized=""/>
    <tripinfo id="84" depart="187.00" departLane="E0_0" departPos="5.10" departSpeed="2.26" departDelay="85.00" arrival="291.00" arrivalLane="E3_0" arrivalPos="90.46" arrivalSpeed="32.82" duration="104.00" routeLength="1314.99" waitingTime="0.00" waitingCount="0" stopTime="0.00" timeLoss="37.62" rerouteNo="0" devices="tripinfo_84" vType="DEFAULT_VEHTYPE" speedFactor="1.25" vaporized=""/>
    <tripinfo id="16" depart="29.00" departLane="E0_0" departPos="5.10" departSpeed="7.06" departDelay="9.00" arrival="300.00" arrivalLane="E3_0" arrivalPos="90.46" arrivalSpeed="25.93" duration="271.00" routeLength="1317.38" waitingTime="133.00" waitingCount="4" stopTime="0.00" timeLoss="191.54" rerouteNo="0" devices="tripinfo_16" vType="DEFAULT_VEHTYPE" speedFactor="1.08" vaporized=""/>
    <tripinfo id="85" depart="190.00" departLane="E0_0" departPos="5.10" departSpeed="4.69" departDelay="86.00" arrival="306.00" arrivalLane="E3_0" arrivalPos="90.46" arrivalSpeed="24.93" duration="116.00" routeLength="1314.99" waitingTime="0.00" waitingCount="0" stopTime="0.00" timeLoss="20.80" rerouteNo="0" devices="tripinfo_85" vType="DEFAULT_VEHTYPE" speedFactor="0.87" vaporized=""/>
    <tripinfo id="87" depart="195.00" departLane="E0_0" departPos="5.10" departSpeed="1.11" departDelay="91.00" arrival="307.00" arrivalLane="E3_0" arrivalPos="90.46" arrivalSpeed="26.98" duration="112.00" routeLength="1314.99" waitingTime="0.00" waitingCount="0" stopTime="0.00" timeLoss="37.23" rerouteNo="0" devices="tripinfo_87" vType="DEFAULT_VEHTYPE" speedFactor="1.10" vaporized=""/>
    <tripinfo id="88" depart="198.00" departLane="E0_0" departPos="5.10" departSpeed="4.07" departDelay="92.00" arrival="309.00" arrivalLane="E3_0" arrivalPos="90.46" arrivalSpeed="28.91" duration="111.00" routeLength="1314.99" waitingTime="0.00" waitingCount="0" stopTime="0.00" timeLoss="26.13" rerouteNo="0" devices="tripinfo_88" vType="DEFAULT_VEHTYPE" speedFactor="0.97" vaporized=""/>
    <tripinfo id="90" depart="203.00" departLane="E0_0" departPos="5.10" departSpeed="4.73" departDelay="96.00" arrival="310.00" arrivalLane="E3_0" arrivalPos="90.46" arrivalSpeed="27.21" duration="107.00" routeLength="1314.99" waitingTime="0.00" waitingCount="0" stopTime="0.00" timeLoss="34.33" rerouteNo="0" devices="tripinfo_90" vType="DEFAULT_VEHTYPE" speedFactor="1.13" vaporized=""/>
    <tripinfo id="91" depart="205.00" departLane="E0_0" departPos="5.10" departSpeed="4.28" departDelay="98.00" arrival="312.00" arrivalLane="E3_0" arrivalPos="90.46" arrivalSpeed="29.32" duration="107.00" routeLength="1314.99" waitingTime="0.00" waitingCount="0" stopTime="0.00" timeLoss="23.67" rerouteNo="0" devices="tripinfo_91" vType="DEFAULT_VEHTYPE" speedFactor="0.99" vaporized=""/>
    <tripinfo id="95" depart="214.00" departLane="E0_0" departPos="5.10" departSpeed="7.31" departDelay="104.00" arrival="313.00" arrivalLane="E3_0" arrivalPos="90.46" arrivalSpeed="29.15" duration="99.00" routeLength="1314.99" waitingTime="0.00" waitingCount="0" stopTime="0.00" timeLoss="18.63" rerouteNo="0" devices="tripinfo_95" vType="DEFAULT_VEHTYPE" speedFactor="1.02" vaporized=""/>
    <tripinfo id="97" depart="218.00" departLane="E0_0" departPos="5.10" departSpeed="4.12" departDelay="106.00" arrival="318.00" arrivalLane="E3_0" arrivalPos="90.46" arrivalSpeed="29.72" duration="100.00" routeLength="1314.99" waitingTime="0.00" waitingCount="0" stopTime="0.00" timeLoss="20.39" rerouteNo="0" devices="tripinfo_97" vType="DEFAULT_VEHTYPE" speedFactor="1.03" vaporized=""/>
    <tripinfo id="98" depart="221.00" departLane="E0_0" departPos="5.10" departSpeed="6.73" departDelay="106.00" arrival="323.00" arrivalLane="E3_0" arrivalPos="90.46" arrivalSpeed="28.86" duration="102.00" routeLength="1314.99" waitingTime="0.00" waitingCount="0" stopTime="0.00" timeLoss="19.69" rerouteNo="0" devices="tripinfo_98" vType="DEFAULT_VEHTYPE" speedFactor="1.00" vaporized=""/>
    <tripinfo id="99" depart="223.00" departLane="E0_0" departPos="5.10" departSpeed="6.83" departDelay="105.00" arrival="324.00" arrivalLane="E3_0" arrivalPos="90.46" arrivalSpeed="31.05" duration="101.00" routeLength="1314.99" waitingTime="0.00" waitingCount="0" stopTime="0.00" timeLoss="27.47" rerouteNo="0" devices="tripinfo_99" vType="DEFAULT_VEHTYPE" speedFactor="1.12" vaporized=""/>
    <tripinfo id="101" depart="227.00" departLane="E0_0" departPos="5.10" departSpeed="5.86" departDelay="108.00" arrival="326.00" arrivalLane="E3_0" arrivalPos="90.46" arrivalSpeed="30.19" duration="99.00" routeLength="1314.99" waitingTime="0.00" waitingCount="0" stopTime="0.00" timeLoss="19.58" rerouteNo="0" devices="tripinfo_101" vType="DEFAULT_VEHTYPE" speedFactor="1.03" vaporized=""/>
    <tripinfo id="103" depart="232.00" departLane="E0_0" departPos="5.10" departSpeed="0.58" departDelay="111.00" arrival="331.00" arrivalLane="E3_0" arrivalPos="90.46" arrivalSpeed="30.27" duration="99.00" routeLength="1314.99" waitingTime="0.00" waitingCount="0" stopTime="0.00" timeLoss="20.23" rerouteNo="0" devices="tripinfo_103" vType="DEFAULT_VEHTYPE" speedFactor="1.04" vaporized=""/>
    <tripinfo id="105" depart="239.00" departLane="E0_0" departPos="5.10" departSpeed="6.08" departDelay="118.00" arrival="337.00" arrivalLane="E3_0" arrivalPos="90.46" arrivalSpeed="29.35" duration="98.00" routeLength="1314.99" waitingTime="0.00" waitingCount="0" stopTime="0.00" timeLoss="16.72" rerouteNo="0" devices="tripinfo_105" vType="DEFAULT_VEHTYPE" speedFactor="1.01" vaporized=""/>