<?xml version="1.0" encoding="UTF-8"?>

<!-- generated on 2023-04-23 17:21:02 by Eclipse SUMO sumo Version 1.16.0
<configuration xmlns:xsi="http://www.w3.org/2001/XMLSchema-instance" xsi:noNamespaceSchemaLocation="http://sumo.dlr.de/xsd/sumoConfiguration.xsd">

    <input>
        <net-file value="007/../configurations/maps/4corners_neighborhoods.net.xml"/>
        <route-files value="007/Trips_File_007.rou.xml"/>
        <additional-files value="007/../edgedata.add.xml"/>
    </input>

    <output>
        <output-prefix value="007/"/>
        <summary-output value="007/../summary_007.xml"/>
        <tripinfo-output value="007/../tripinfo_007.xml"/>
    </output>

    <time>
        <begin value="0"/>
    </time>

    <processing>
        <route-steps value="200"/>
        <no-internal-links value="False"/>
        <time-to-teleport value="300"/>
        <time-to-teleport.highways value="0"/>
        <eager-insert value="False"/>
    </processing>

    <report>
        <verbose value="true"/>
        <no-warnings value="False"/>
        <log value="007/../iteration_007.sumo.log"/>
        <no-step-log value="true"/>
    </report>

    <random_number>
        <random value="False"/>
    </random_number>

</configuration>
-->

<tripinfos xmlns:xsi="http://www.w3.org/2001/XMLSchema-instance" xsi:noNamespaceSchemaLocation="http://sumo.dlr.de/xsd/tripinfo_file.xsd">
    <tripinfo id="14" depart="10.00" departLane="318908683#0_0" departPos="5.10" departSpeed="0.00" departDelay="0.00" arrival="74.00" arrivalLane="918280984_0" arrivalPos="38.78" arrivalSpeed="13.32" duration="64.00" routeLength="693.58" waitingTime="18.00" waitingCount="1" stopTime="0.00" timeLoss="34.79" rerouteNo="0" devices="tripinfo_14" vType="DEFAULT_VEHTYPE" speedFactor="1.05" vaporized=""/>
    <tripinfo id="35" depart="26.00" departLane="318908683#0_0" departPos="5.10" departSpeed="0.00" departDelay="0.00" arrival="76.00" arrivalLane="918280984_0" arrivalPos="38.78" arrivalSpeed="15.00" duration="50.00" routeLength="693.58" waitingTime="8.00" waitingCount="1" stopTime="0.00" timeLoss="23.50" rerouteNo="0" devices="tripinfo_35" vType="DEFAULT_VEHTYPE" speedFactor="1.17" vaporized=""/>
    <tripinfo id="44" depart="40.00" departLane="318908683#0_0" departPos="5.10" departSpeed="0.00" departDelay="0.00" arrival="81.00" arrivalLane="918280984_0" arrivalPos="38.78" arrivalSpeed="15.02" duration="41.00" routeLength="693.58" waitingTime="0.00" waitingCount="0" stopTime="0.00" timeLoss="11.93" rerouteNo="0" devices="tripinfo_44" vType="DEFAULT_VEHTYPE" speedFactor="1.09" vaporized=""/>
    <tripinfo id="45" depart="43.00" departLane="318908683#0_0" departPos="5.10" departSpeed="0.00" departDelay="0.00" arrival="90.00" arrivalLane="260998164#0_0" arrivalPos="257.55" arrivalSpeed="28.34" duration="47.00" routeLength="939.98" waitingTime="0.00" waitingCount="0" stopTime="0.00" timeLoss="10.40" rerouteNo="0" devices="tripinfo_45" vType="DEFAULT_VEHTYPE" speedFactor="1.04" vaporized=""/>
    <tripinfo id="7" depart="4.00" departLane="422685671#2_0" departPos="5.10" departSpeed="0.00" departDelay="0.00" arrival="103.00" arrivalLane="-597602753#1_0" arrivalPos="143.59" arrivalSpeed="17.47" duration="99.00" routeLength="1584.34" waitingTime="0.00" waitingCount="0" stopTime="0.00" timeLoss="14.83" rerouteNo="0" devices="tripinfo_7" vType="DEFAULT_VEHTYPE" speedFactor="0.83" vaporized=""/>
    <tripinfo id="26" depart="19.00" departLane="422688973_0" departPos="5.10" departSpeed="0.00" departDelay="0.00" arrival="104.00" arrivalLane="15374898#0-AddedOffRampEdge_0" arrivalPos="100.00" arrivalSpeed="22.71" duration="85.00" routeLength="1006.54" waitingTime="23.00" waitingCount="1" stopTime="0.00" timeLoss="39.73" rerouteNo="0" devices="tripinfo_26" vType="DEFAULT_VEHTYPE" speedFactor="0.83" vaporized=""/>
    <tripinfo id="23" depart="19.00" departLane="-260998164#3_0" departPos="5.10" departSpeed="0.00" departDelay="3.00" arrival="107.00" arrivalLane="-597602756#0_0" arrivalPos="325.99" arrivalSpeed="22.08" duration="88.00" routeLength="1231.40" waitingTime="0.00" waitingCount="0" stopTime="0.00" timeLoss="15.75" rerouteNo="0" devices="tripinfo_23" vType="DEFAULT_VEHTYPE" speedFactor="1.01" vaporized=""/>
    <tripinfo id="11" depart="7.00" departLane="597602753#0_0" departPos="5.10" departSpeed="0.00" departDelay="0.00" arrival="114.00" arrivalLane="422688976#1_0" arrivalPos="294.40" arrivalSpeed="22.92" duration="107.00" routeLength="1286.53" waitingTime="0.00" waitingCount="0" stopTime="0.00" timeLoss="15.29" rerouteNo="0" devices="tripinfo_11" vType="DEFAULT_VEHTYPE" speedFactor="0.86" vaporized=""/>
    <tripinfo id="24" depart="19.00" departLane="597602756#0_0" departPos="5.10" departSpeed="0.00" departDelay="2.00" arrival="114.00" arrivalLane="260998164#0_0" arrivalPos="257.55" arrivalSpeed="25.88" duration="95.00" routeLength="1239.91" waitingTime="3.00" waitingCount="1" stopTime="0.00" timeLoss="20.04" rerouteNo="0" devices="tripinfo_24" vType="DEFAULT_VEHTYPE" speedFactor="0.97" vaporized=""/>
    <tripinfo id="32" depart="24.00" departLane="422688973_0" departPos="5.10" departSpeed="0.00" departDelay="0.00" arrival="115.00" arrivalLane="-105681660#20_0" arrivalPos="806.12" arrivalSpeed="25.40" duration="91.00" routeLength="1352.23" waitingTime="9.00" waitingCount="1" stopTime="0.00" timeLoss="26.72" rerouteNo="0" devices="tripinfo_32" vType="DEFAULT_VEHTYPE" speedFactor="1.18" vaporized=""/>
    <tripinfo id="6" depart="2.00" departLane="918280985_0" departPos="5.10" departSpeed="0.00" departDelay="0.00" arrival="116.00" arrivalLane="-597602753#1_0" arrivalPos="143.59" arrivalSpeed="22.63" duration="114.00" routeLength="1072.66" waitingTime="27.00" waitingCount="1" stopTime="0.00" timeLoss="43.02" rerouteNo="0" devices="tripinfo_6" vType="DEFAULT_VEHTYPE" speedFactor="1.03" vaporized=""/>
    <tripinfo id="63" depart="65.00" departLane="422685671#2_0" departPos="5.10" departSpeed="0.00" departDelay="0.00" arrival="117.00" arrivalLane="260998164#0_0" arrivalPos="257.55" arrivalSpeed="30.09" duration="52.00" routeLength="1329.43" waitingTime="0.00" waitingCount="0" stopTime="0.00" timeLoss="8.42" rerouteNo="0" devices="tripinfo_63" vType="DEFAULT_VEHTYPE" speedFactor="1.12" vaporized=""/>
    <tripinfo id="9" depart="7.00" departLane="597602756#0_0" departPos="5.10" departSpeed="0.00" departDelay="3.00" arrival="118.00" arrivalLane="15374898#0-AddedOffRampEdge_0" arrivalPos="100.00" arrivalSpeed="23.92" duration="111.00" routeLength="1760.61" waitingTime="0.00" waitingCount="0" stopTime="0.00" timeLoss="14.24" rerouteNo="0" devices="tripinfo_9" vType="DEFAULT_VEHTYPE" speedFactor="0.89" vaporized=""/>
    <tripinfo id="4" depart="1.00" departLane="597602753#0_0" departPos="5.10" departSpeed="0.00" departDelay="0.00" arrival="119.00" arrivalLane="15374898#0-AddedOffRampEdge_0" arrivalPos="100.00" arrivalSpeed="26.99" duration="118.00" routeLength="1981.16" waitingTime="0.00" waitingCount="0" stopTime="0.00" timeLoss="21.99" rerouteNo="0" devices="tripinfo_4" vType="DEFAULT_VEHTYPE" speedFactor="1.01" vaporized=""/>
    <tripinfo id="8" depart="4.00" departLane="597602756#0_0" departPos="5.10" departSpeed="0.00" departDelay="0.00" arrival="121.00" arrivalLane="15374898#0-AddedOffRampEdge_1" arrivalPos="100.00" arrivalSpeed="28.97" duration="117.00" routeLength="2043.36" waitingTime="0.00" waitingCount="0" stopTime="0.00" timeLoss="19.59" rerouteNo="0" devices="tripinfo_8" vType="DEFAULT_VEHTYPE" speedFactor="1.05" vaporized=""/>
    <tripinfo id="13" depart="10.00" departLane="-260998164#3_0" departPos="5.10" departSpeed="0.00" departDelay="0.00" arrival="121.00" arrivalLane="-318908683#1_0" arrivalPos="71.22" arrivalSpeed="13.18" duration="111.00" routeLength="955.07" waitingTime="58.00" waitingCount="1" stopTime="0.00" timeLoss="73.63" rerouteNo="0" devices="tripinfo_13" vType="DEFAULT_VEHTYPE" speedFactor="1.03" vaporized=""/>
    <tripinfo id="25" depart="19.00" departLane="597602753#0_0" departPos="5.10" departSpeed="0.00" departDelay="0.00" arrival="122.00" arrivalLane="422688976#1_0" arrivalPos="294.40" arrivalSpeed="23.92" duration="103.00" routeLength="1286.53" waitingTime="0.00" waitingCount="0" stopTime="0.00" timeLoss="14.43" rerouteNo="0" devices="tripinfo_25" vType="DEFAULT_VEHTYPE" speedFactor="0.89" vaporized=""/>
    <tripinfo id="2" depart="0.00" departLane="597602756#0_0" departPos="5.10" departSpeed="0.00" departDelay="0.00" arrival="124.00" arrivalLane="-318908683#1_0" arrivalPos="71.22" arrivalSpeed="14.44" duration="124.00" routeLength="1665.63" waitingTime="13.00" waitingCount="1" stopTime="0.00" timeLoss="36.90" rerouteNo="0" devices="tripinfo_2" vType="DEFAULT_VEHTYPE" speedFactor="1.06" vaporized=""/>
    <tripinfo id="18" depart="13.00" departLane="318908683#0_0" departPos="5.10" departSpeed="0.00" departDelay="1.00" arrival="127.00" arrivalLane="-597602753#1_0" arrivalPos="143.59" arrivalSpeed="18.48" duration="114.00" routeLength="1208.14" waitingTime="23.00" waitingCount="2" stopTime="0.00" timeLoss="49.11" rerouteNo="0" devices="tripinfo_18" vType="DEFAULT_VEHTYPE" speedFactor="0.88" vaporized=""/>
    <tripinfo id="40" depart="36.00" departLane="597602756#0_0" departPos="5.10" departSpeed="0.00" departDelay="0.00" arrival="128.00" arrivalLane="-597602753#1_0" arrivalPos="143.59" arrivalSpeed="21.33" duration="92.00" routeLength="1638.96" waitingTime="0.00" waitingCount="0" stopTime="0.00" timeLoss="24.37" rerouteNo="0" devices="tripinfo_40" vType="DEFAULT_VEHTYPE" speedFactor="1.10" vaporized=""/>
    <tripinfo id="30" depart="22.00" departLane="318908683#0_0" departPos="5.10" departSpeed="0.00" departDelay="0.00" arrival="132.00" arrivalLane="-105681660#20_0" arrivalPos="806.12" arrivalSpeed="23.89" duration="110.00" routeLength="1436.85" waitingTime="16.00" waitingCount="2" stopTime="0.00" timeLoss="50.30" rerouteNo="0" devices="tripinfo_30" vType="DEFAULT_VEHTYPE" speedFactor="1.13" vaporized=""/>
    <tripinfo id="60" depart="60.00" departLane="105681660#12_0" departPos="5.10" departSpeed="0.00" departDelay="0.00" arrival="138.00" arrivalLane="-597602753#1_0" arrivalPos="143.59" arrivalSpeed="22.53" duration="78.00" routeLength="1380.56" waitingTime="1.00" waitingCount="1" stopTime="0.00" timeLoss="16.02" rerouteNo="0" devices="tripinfo_60" vType="DEFAULT_VEHTYPE" speedFactor="1.02" vaporized=""/>
    <tripinfo id="3" depart="0.00" departLane="318908683#0_0" departPos="5.10" departSpeed="0.00" departDelay="0.00" arrival="140.00" arrivalLane="422688976#1_0" arrivalPos="294.40" arrivalSpeed="25.17" duration="140.00" routeLength="940.85" waitingTime="78.00" waitingCount="2" stopTime="0.00" timeLoss="100.74" rerouteNo="0" devices="tripinfo_3" vType="DEFAULT_VEHTYPE" speedFactor="0.94" vaporized=""/>
    <tripinfo id="21" depart="16.00" departLane="-260998164#3_0" departPos="5.10" departSpeed="0.00" departDelay="2.00" arrival="140.00" arrivalLane="422688976#1_1" arrivalPos="294.40" arrivalSpeed="31.32" duration="124.00" routeLength="1702.46" waitingTime="40.00" waitingCount="1" stopTime="0.00" timeLoss="70.28" rerouteNo="0" devices="tripinfo_21" vType="DEFAULT_VEHTYPE" speedFactor="1.16" vaporized=""/>
    <tripinfo id="33" depart="24.00" departLane="918280985_0" departPos="5.10" departSpeed="0.00" departDelay="0.00" arrival="141.00" arrivalLane="-318908683#1_0" arrivalPos="71.22" arrivalSpeed="15.23" duration="117.00" routeLength="674.50" waitingTime="68.00" waitingCount="2" stopTime="0.00" timeLoss="90.26" rerouteNo="0" devices="tripinfo_33" vType="DEFAULT_VEHTYPE" speedFactor="1.15" vaporized=""/>
    <tripinfo id="12" depart="13.00" departLane="597602756#0_0" departPos="5.10" departSpeed="0.00" departDelay="5.00" arrival="142.00" arrivalLane="422688976#1_2" arrivalPos="294.40" arrivalSpeed="30.07" duration="129.00" routeLength="1985.14" waitingTime="15.00" waitingCount="1" stopTime="0.00" timeLoss="50.92" rerouteNo="0" devices="tripinfo_12" vType="DEFAULT_VEHTYPE" speedFactor="1.09" vaporized=""/>
    <tripinfo id="41" depart="36.00" departLane="318908683#0_0" departPos="5.10" departSpeed="0.00" departDelay="0.00" arrival="142.00" arrivalLane="422688976#1_1" arrivalPos="294.40" arrivalSpeed="23.93" duration="106.00" routeLength="940.85" waitingTime="45.00" waitingCount="1" stopTime="0.00" timeLoss="65.20" rerouteNo="0" devices="tripinfo_41" vType="DEFAULT_VEHTYPE" speedFactor="0.90" vaporized=""/>
    <tripinfo id="47" depart="48.00" departLane="597602753#0_0" departPos="5.10" departSpeed="0.00" departDelay="0.00" arrival="142.00" arrivalLane="-105681660#20_0" arrivalPos="806.12" arrivalSpeed="23.71" duration="94.00" routeLength="1387.70" waitingTime="18.00" waitingCount="2" stopTime="0.00" timeLoss="35.41" rerouteNo="0" devices="tripinfo_47" vType="DEFAULT_VEHTYPE" speedFactor="1.09" vaporized=""/>
    <tripinfo id="15" depart="10.00" departLane="422688973_0" departPos="5.10" departSpeed="0.00" departDelay="0.00" arrival="143.00" arrivalLane="-318908683#1_0" arrivalPos="71.22" arrivalSpeed="14.90" duration="133.00" routeLength="684.23" waitingTime="82.00" waitingCount="2" stopTime="0.00" timeLoss="107.60" rerouteNo="0" devices="tripinfo_15" vType="DEFAULT_VEHTYPE" speedFactor="1.12" vaporized=""/>
    <tripinfo id="49" depart="51.00" departLane="422688973_0" departPos="5.10" departSpeed="0.00" departDelay="0.00" arrival="146.00" arrivalLane="-318908683#1_0" arrivalPos="71.22" arrivalSpeed="11.49" duration="95.00" routeLength="684.23" waitingTime="48.00" waitingCount="1" stopTime="0.00" timeLoss="63.81" rerouteNo="0" devices="tripinfo_49" vType="DEFAULT_VEHTYPE" speedFactor="0.90" vaporized=""/>
    <tripinfo id="29" depart="21.00" departLane="422685671#2_0" departPos="5.10" departSpeed="0.00" departDelay="0.00" arrival="149.00" arrivalLane="918280984_0" arrivalPos="38.78" arrivalSpeed="12.26" duration="128.00" routeLength="1069.78" waitingTime="63.00" waitingCount="1" stopTime="0.00" timeLoss="81.69" rerouteNo="0" devices="tripinfo_29" vType="DEFAULT_VEHTYPE" speedFactor="0.95" vaporized=""/>
    <tripinfo id="51" depart="54.00" departLane="422688973_0" departPos="5.10" departSpeed="0.00" departDelay="2.00" arrival="149.00" arrivalLane="-318908683#1_0" arrivalPos="71.22" arrivalSpeed="10.81" duration="95.00" routeLength="684.23" waitingTime="45.00" waitingCount="1" stopTime="0.00" timeLoss="61.46" rerouteNo="0" devices="tripinfo_51" vType="DEFAULT_VEHTYPE" speedFactor="0.85" vaporized=""/>
    <tripinfo id="5" depart="4.00" departLane="597602753#0_0" departPos="5.10" departSpeed="0.00" departDelay="2.00" arrival="150.00" arrivalLane="-318908683#1_0" arrivalPos="71.22" arrivalSpeed="12.76" duration="146.00" routeLength="1642.11" waitingTime="24.00" waitingCount="2" stopTime="0.00" timeLoss="58.26" rerouteNo="0" devices="tripinfo_5" vType="DEFAULT_VEHTYPE" speedFactor="1.08" vaporized=""/>
    <tripinfo id="42" depart="37.00" departLane="597602753#0_0" departPos="5.10" departSpeed="0.00" departDelay="0.00" arrival="153.00" arrivalLane="-318908683#1_0" arrivalPos="71.22" arrivalSpeed="13.60" duration="116.00" routeLength="1642.11" waitingTime="0.00" waitingCount="0" stopTime="0.00" timeLoss="23.41" rerouteNo="0" devices="tripinfo_42" vType="DEFAULT_VEHTYPE" speedFactor="1.03" vaporized=""/>
    <tripinfo id="43" depart="39.00" departLane="422685671#2_0" departPos="5.10" departSpeed="0.00" departDelay="0.00" arrival="154.00" arrivalLane="918280984_0" arrivalPos="38.78" arrivalSpeed="12.37" duration="115.00" routeLength="1069.78" waitingTime="49.00" waitingCount="1" stopTime="0.00" timeLoss="68.75" rerouteNo="0" devices="tripinfo_43" vType="DEFAULT_VEHTYPE" speedFactor="0.96" vaporized=""/>
    <tripinfo id="19" depart="13.00" departLane="422688973_0" departPos="5.10" departSpeed="0.00" departDelay="0.00" arrival="157.00" arrivalLane="-597602756#0_0" arrivalPos="325.99" arrivalSpeed="19.92" duration="144.00" routeLength="1900.12" waitingTime="27.00" waitingCount="1" stopTime="0.00" timeLoss="56.84" rerouteNo="0" devices="tripinfo_19" vType="DEFAULT_VEHTYPE" speedFactor="0.94" vaporized=""/>
    <tripinfo id="34" depart="25.00" departLane="597602753#0_0" departPos="5.10" departSpeed="0.00" departDelay="0.00" arrival="161.00" arrivalLane="15374898#0-AddedOffRampEdge_0" arrivalPos="100.00" arrivalSpeed="27.14" duration="136.00" routeLength="1964.42" waitingTime="1.00" waitingCount="1" stopTime="0.00" timeLoss="32.46" rerouteNo="0" devices="tripinfo_34" vType="DEFAULT_VEHTYPE" speedFactor="1.01" vaporized=""/>
    <tripinfo id="27" depart="22.00" departLane="-260998164#3_0" departPos="5.10" departSpeed="0.00" departDelay="1.00" arrival="163.00" arrivalLane="-597602753#1_0" arrivalPos="143.59" arrivalSpeed="18.09" duration="141.00" routeLength="1931.64" waitingTime="10.00" waitingCount="1" stopTime="0.00" timeLoss="33.37" rerouteNo="0" devices="tripinfo_27" vType="DEFAULT_VEHTYPE" speedFactor="0.87" vaporized=""/>
    <tripinfo id="69" depart="71.00" departLane="422688973_0" departPos="5.10" departSpeed="0.00" departDelay="2.00" arrival="164.00" arrivalLane="-318908683#1_0" arrivalPos="71.22" arrivalSpeed="11.85" duration="93.00" routeLength="684.23" waitingTime="45.00" waitingCount="1" stopTime="0.00" timeLoss="62.73" rerouteNo="0" devices="tripinfo_69" vType="DEFAULT_VEHTYPE" speedFactor="0.91" vaporized=""/>
    <tripinfo id="38" depart="33.00" departLane="597602753#0_0" departPos="5.10" departSpeed="0.00" departDelay="0.00" arrival="166.00" arrivalLane="15374898#0-AddedOffRampEdge_0" arrivalPos="100.00" arrivalSpeed="26.55" duration="133.00" routeLength="1964.42" waitingTime="0.00" waitingCount="0" stopTime="0.00" timeLoss="25.63" rerouteNo="0" devices="tripinfo_38" vType="DEFAULT_VEHTYPE" speedFactor="0.97" vaporized=""/>
    <tripinfo id="103" depart="106.00" departLane="422688973_0" departPos="5.10" departSpeed="0.00" departDelay="0.00" arrival="168.00" arrivalLane="-318908683#1_0" arrivalPos="71.22" arrivalSpeed="13.22" duration="62.00" routeLength="684.23" waitingTime="13.00" waitingCount="1" stopTime="0.00" timeLoss="32.14" rerouteNo="0" devices="tripinfo_103" vType="DEFAULT_VEHTYPE" speedFactor="0.96" vaporized=""/>
    <tripinfo id="50" depart="51.00" departLane="597602756#0_0" departPos="5.10" departSpeed="0.00" departDelay="0.00" arrival="170.00" arrivalLane="-105681660#20_0" arrivalPos="806.12" arrivalSpeed="18.48" duration="119.00" routeLength="1867.67" waitingTime="0.00" waitingCount="0" stopTime="0.00" timeLoss="20.07" rerouteNo="0" devices="tripinfo_50" vType="DEFAULT_VEHTYPE" speedFactor="0.88" vaporized=""/>
    <tripinfo id="17" depart="13.00" departLane="-260998164#3_0" departPos="5.10" departSpeed="0.00" departDelay="2.00" arrival="171.00" arrivalLane="-105681660#20_0" arrivalPos="806.12" arrivalSpeed="20.55" duration="158.00" routeLength="2208.42" waitingTime="28.00" waitingCount="1" stopTime="0.00" timeLoss="56.43" rerouteNo="0" devices="tripinfo_17" vType="DEFAULT_VEHTYPE" speedFactor="0.93" vaporized=""/>
    <tripinfo id="87" depart="91.00" departLane="105681660#12_0" departPos="5.10" departSpeed="0.00" departDelay="0.00" arrival="171.00" arrivalLane="-597602753#1_0" arrivalPos="143.59" arrivalSpeed="21.15" duration="80.00" routeLength="1380.56" waitingTime="1.00" waitingCount="1" stopTime="0.00" timeLoss="15.47" rerouteNo="0" devices="tripinfo_87" vType="DEFAULT_VEHTYPE" speedFactor="0.98" vaporized=""/>
    <tripinfo id="58" depart="57.00" departLane="318908683#0_0" departPos="5.10" departSpeed="0.00" departDelay="0.00" arrival="172.00" arrivalLane="260998164#0_0" arrivalPos="257.55" arrivalSpeed="24.81" duration="115.00" routeLength="939.98" waitingTime="63.00" waitingCount="1" stopTime="0.00" timeLoss="73.57" rerouteNo="0" devices="tripinfo_58" vType="DEFAULT_VEHTYPE" speedFactor="0.90" vaporized=""/>
    <tripinfo id="46" depart="47.00" departLane="918280985_0" departPos="5.10" departSpeed="0.00" departDelay="0.00" arrival="173.00" arrivalLane="-597602753#1_0" arrivalPos="143.59" arrivalSpeed="22.12" duration="126.00" routeLength="1123.56" waitingTime="36.00" waitingCount="2" stopTime="0.00" timeLoss="62.11" rerouteNo="0" devices="tripinfo_46" vType="DEFAULT_VEHTYPE" speedFactor="1.04" vaporized=""/>
    <tripinfo id="64" depart="65.00" departLane="918280985_0" departPos="5.10" departSpeed="0.00" departDelay="0.00" arrival="176.00" arrivalLane="-597602753#1_0" arrivalPos="143.59" arrivalSpeed="22.34" duration="111.00" routeLength="1123.56" waitingTime="22.00" waitingCount="2" stopTime="0.00" timeLoss="45.32" rerouteNo="0" devices="tripinfo_64" vType="DEFAULT_VEHTYPE" speedFactor="1.02" vaporized=""/>
    <tripinfo id="85" depart="92.00" departLane="318908683#0_0" departPos="5.10" departSpeed="0.00" departDelay="2.00" arrival="177.00" arrivalLane="260998164#0_0" arrivalPos="257.55" arrivalSpeed="26.13" duration="85.00" routeLength="939.98" waitingTime="32.00" waitingCount="1" stopTime="0.00" timeLoss="46.07" rerouteNo="0" devices="tripinfo_85" vType="DEFAULT_VEHTYPE" speedFactor="0.97" vaporized=""/>
    <tripinfo id="67" depart="68.00" departLane="422688973_0" departPos="5.10" departSpeed="0.00" departDelay="0.00" arrival="178.00" arrivalLane="15374898#0-AddedOffRampEdge_0" arrivalPos="100.00" arrivalSpeed="23.48" duration="110.00" routeLength="1006.54" waitingTime="47.00" waitingCount="1" stopTime="0.00" timeLoss="68.08" rerouteNo="0" devices="tripinfo_67" vType="DEFAULT_VEHTYPE" speedFactor="0.88" vaporized=""/>
    <tripinfo id="96" depart="104.00" departLane="918280985_0" departPos="5.10" departSpeed="0.00" departDelay="4.00" arrival="179.00" arrivalLane="-597602753#1_0" arrivalPos="143.59" arrivalSpeed="24.18" duration="75.00" routeLength="1123.56" waitingTime="0.00" waitingCount="0" stopTime="0.00" timeLoss="13.49" rerouteNo="0" devices="tripinfo_96" vType="DEFAULT_VEHTYPE" speedFactor="1.09" vaporized=""/>
    <tripinfo id="109" depart="111.00" departLane="422688973_0" departPos="5.10" departSpeed="0.00" departDelay="0.00" arrival="180.00" arrivalLane="15374898#0-AddedOffRampEdge_0" arrivalPos="100.00" arrivalSpeed="27.48" duration="69.00" routeLength="1006.54" waitingTime="7.00" waitingCount="1" stopTime="0.00" timeLoss="32.80" rerouteNo="0" devices="tripinfo_109" vType="DEFAULT_VEHTYPE" speedFactor="1.03" vaporized=""/>
    <tripinfo id="70" depart="72.00" departLane="597602753#0_0" departPos="5.10" departSpeed="0.00" departDelay="0.00" arrival="184.00" arrivalLane="918280984_0" arrivalPos="38.78" arrivalSpeed="13.96" duration="112.00" routeLength="1061.00" waitingTime="12.00" waitingCount="1" stopTime="0.00" timeLoss="42.17" rerouteNo="0" devices="tripinfo_70" vType="DEFAULT_VEHTYPE" speedFactor="1.04" vaporized=""/>
    <tripinfo id="57" depart="57.00" departLane="597602753#0_0" departPos="5.10" departSpeed="0.00" departDelay="0.00" arrival="186.00" arrivalLane="422688976#1_0" arrivalPos="294.40" arrivalSpeed="27.19" duration="129.00" routeLength="1286.53" waitingTime="27.00" waitingCount="1" stopTime="0.00" timeLoss="49.38" rerouteNo="0" devices="tripinfo_57" vType="DEFAULT_VEHTYPE" speedFactor="1.00" vaporized=""/>
    <tripinfo id="92" depart="99.00" departLane="-260998164#3_0" departPos="5.10" departSpeed="0.00" departDelay="5.00" arrival="188.00" arrivalLane="-597602756#0_0" arrivalPos="325.99" arrivalSpeed="22.22" duration="89.00" routeLength="1231.40" waitingTime="0.00" waitingCount="0" stopTime="0.00" timeLoss="18.00" rerouteNo="0" devices="tripinfo_92" vType="DEFAULT_VEHTYPE" speedFactor="1.02" vaporized=""/>
    <tripinfo id="16" depart="16.00" departLane="597602756#0_0" departPos="5.10" departSpeed="0.00" departDelay="5.00" arrival="189.00" arrivalLane="-597602753#1_0" arrivalPos="143.59" arrivalSpeed="20.92" duration="173.00" routeLength="2407.52" waitingTime="15.00" waitingCount="1" stopTime="0.00" timeLoss="51.94" rerouteNo="0" devices="tripinfo_16" vType="DEFAULT_VEHTYPE" speedFactor="0.99" vaporized=""/>
    <tripinfo id="76" depart="78.00" departLane="918280985_0" departPos="5.10" departSpeed="0.00" departDelay="0.00" arrival="190.00" arrivalLane="-105681660#20_0" arrivalPos="806.12" arrivalSpeed="20.66" duration="112.00" routeLength="1360.98" waitingTime="11.00" waitingCount="1" stopTime="0.00" timeLoss="31.62" rerouteNo="0" devices="tripinfo_76" vType="DEFAULT_VEHTYPE" speedFactor="0.96" vaporized=""/>
    <tripinfo id="86" depart="93.00" departLane="-260998164#3_0" departPos="5.10" departSpeed="0.00" departDelay="3.00" arrival="192.00" arrivalLane="-597602753#1_0" arrivalPos="143.59" arrivalSpeed="24.21" duration="99.00" routeLength="1969.75" waitingTime="0.00" waitingCount="0" stopTime="0.00" timeLoss="26.96" rerouteNo="0" devices="tripinfo_86" vType="DEFAULT_VEHTYPE" speedFactor="1.15" vaporized=""/>
    <tripinfo id="147" depart="151.00" departLane="318908683#0_0" departPos="5.10" departSpeed="0.00" departDelay="5.00" arrival="193.00" arrivalLane="260998164#0_0" arrivalPos="257.55" arrivalSpeed="30.93" duration="42.00" routeLength="939.98" waitingTime="0.00" waitingCount="0" stopTime="0.00" timeLoss="9.21" rerouteNo="0" devices="tripinfo_147" vType="DEFAULT_VEHTYPE" speedFactor="1.14" vaporized=""/>
    <tripinfo id="36" depart="30.00" departLane="422685671#2_0" departPos="5.10" departSpeed="0.00" departDelay="0.00" arrival="195.00" arrivalLane="-597602756#0_0" arrivalPos="325.99" arrivalSpeed="21.46" duration="165.00" routeLength="1778.05" waitingTime="55.00" waitingCount="1" stopTime="0.00" timeLoss="84.65" rerouteNo="0" devices="tripinfo_36" vType="DEFAULT_VEHTYPE" speedFactor="0.99" vaporized=""/>
    <tripinfo id="77" depart="81.00" departLane="597602753#0_0" departPos="5.10" departSpeed="0.00" departDelay="2.00" arrival="198.00" arrivalLane="422688976#1_0" arrivalPos="294.40" arrivalSpeed="26.35" duration="117.00" routeLength="1286.53" waitingTime="8.00" waitingCount="1" stopTime="0.00" timeLoss="37.31" rerouteNo="0" devices="tripinfo_77" vType="DEFAULT_VEHTYPE" speedFactor="0.98" vaporized=""/>
    <tripinfo id="154" depart="154.00" departLane="318908683#0_0" departPos="5.10" departSpeed="0.00" departDelay="3.00" arrival="198.00" arrivalLane="260998164#0_0" arrivalPos="257.55" arrivalSpeed="29.48" duration="44.00" routeLength="939.98" waitingTime="0.00" waitingCount="0" stopTime="0.00" timeLoss="8.35" rerouteNo="0" devices="tripinfo_154" vType="DEFAULT_VEHTYPE" speedFactor="1.07" vaporized=""/>
    <tripinfo id="81" depart="83.00" departLane="422685671#2_0" departPos="5.10" departSpeed="0.00" departDelay="0.00" arrival="199.00" arrivalLane="-105681660#20_0" arrivalPos="806.12" arrivalSpeed="23.57" duration="116.00" routeLength="1813.05" waitingTime="7.00" waitingCount="1" stopTime="0.00" timeLoss="42.20" rerouteNo="0" devices="tripinfo_81" vType="DEFAULT_VEHTYPE" speedFactor="1.09" vaporized=""/>
    <tripinfo id="161" depart="157.00" departLane="318908683#0_0" departPos="5.10" departSpeed="0.00" departDelay="1.00" arrival="200.00" arrivalLane="260998164#0_0" arrivalPos="257.55" arrivalSpeed="31.09" duration="43.00" routeLength="939.98" waitingTime="0.00" waitingCount="0" stopTime="0.00" timeLoss="9.35" rerouteNo="0" devices="tripinfo_161" vType="DEFAULT_VEHTYPE" speedFactor="1.14" vaporized=""/>
    <tripinfo id="39" depart="35.00" departLane="105681660#12_0" departPos="5.10" departSpeed="0.00" departDelay="0.00" arrival="201.00" arrivalLane="422688976#1_0" arrivalPos="294.40" arrivalSpeed="32.08" duration="166.00" routeLength="1630.66" waitingTime="40.00" waitingCount="3" stopTime="0.00" timeLoss="92.52" rerouteNo="0" devices="tripinfo_39" vType="DEFAULT_VEHTYPE" speedFactor="1.18" vaporized=""/>
    <tripinfo id="110" depart="117.00" departLane="-260998164#3_0" departPos="5.10" departSpeed="0.00" departDelay="6.00" arrival="202.00" arrivalLane="-597602756#0_0" arrivalPos="325.99" arrivalSpeed="22.46" duration="85.00" routeLength="1231.40" waitingTime="0.00" waitingCount="0" stopTime="0.00" timeLoss="17.76" rerouteNo="0" devices="tripinfo_110" vType="DEFAULT_VEHTYPE" speedFactor="1.06" vaporized=""/>
    <tripinfo id="115" depart="115.00" departLane="597602753#0_0" departPos="5.10" departSpeed="0.00" departDelay="0.00" arrival="202.00" arrivalLane="918280984_0" arrivalPos="38.78" arrivalSpeed="13.76" duration="87.00" routeLength="1061.00" waitingTime="0.00" waitingCount="0" stopTime="0.00" timeLoss="15.33" rerouteNo="0" devices="tripinfo_115" vType="DEFAULT_VEHTYPE" speedFactor="1.01" vaporized=""/>
    <tripinfo id="55" depart="57.00" departLane="597602756#0_0" departPos="5.10" departSpeed="0.00" departDelay="2.00" arrival="204.00" arrivalLane="15374898#0-AddedOffRampEdge_0" arrivalPos="100.00" arrivalSpeed="29.97" duration="147.00" routeLength="2631.89" waitingTime="0.00" waitingCount="0" stopTime="0.00" timeLoss="45.67" rerouteNo="0" devices="tripinfo_55" vType="DEFAULT_VEHTYPE" speedFactor="1.10" vaporized=""/>
    <tripinfo id="82" depart="86.00" departLane="422685671#2_0" departPos="5.10" departSpeed="0.00" departDelay="3.00" arrival="204.00" arrivalLane="-105681660#20_0" arrivalPos="806.12" arrivalSpeed="22.94" duration="118.00" routeLength="1813.05" waitingTime="6.00" waitingCount="1" stopTime="0.00" timeLoss="39.82" rerouteNo="0" devices="tripinfo_82" vType="DEFAULT_VEHTYPE" speedFactor="1.03" vaporized=""/>
    <tripinfo id="80" depart="82.00" departLane="105681660#12_0" departPos="5.10" departSpeed="0.00" departDelay="0.00" arrival="205.00" arrivalLane="422688976#1_0" arrivalPos="294.40" arrivalSpeed="27.83" duration="123.00" routeLength="1630.66" waitingTime="9.00" waitingCount="1" stopTime="0.00" timeLoss="37.08" rerouteNo="0" devices="tripinfo_80" vType="DEFAULT_VEHTYPE" speedFactor="1.01" vaporized=""/>