<?xml version="1.0" encoding="UTF-8"?>

<!-- generated on 2023-04-24 13:01:51 by Eclipse SUMO sumo Version 1.16.0
<configuration xmlns:xsi="http://www.w3.org/2001/XMLSchema-instance" xsi:noNamespaceSchemaLocation="http://sumo.dlr.de/xsd/sumoConfiguration.xsd">

    <input>
        <net-file value="006/../configurations/maps/4corners_neighborhoods.net.xml"/>
        <route-files value="006/Trips_File_006.rou.xml"/>
        <additional-files value="006/../edgedata.add.xml"/>
    </input>

    <output>
        <output-prefix value="006/"/>
        <summary-output value="006/../summary_006.xml"/>
        <tripinfo-output value="006/../tripinfo_006.xml"/>
    </output>

    <time>
        <begin value="0"/>
    </time>

    <processing>
        <route-steps value="200"/>
        <no-internal-links value="False"/>
        <time-to-teleport value="300"/>
        <time-to-teleport.highways value="0"/>
        <eager-insert value="False"/>
    </processing>

    <report>
        <verbose value="true"/>
        <no-warnings value="False"/>
        <log value="006/../iteration_006.sumo.log"/>
        <no-step-log value="true"/>
    </report>

    <random_number>
        <random value="False"/>
    </random_number>

</configuration>
-->

<tripinfos xmlns:xsi="http://www.w3.org/2001/XMLSchema-instance" xsi:noNamespaceSchemaLocation="http://sumo.dlr.de/xsd/tripinfo_file.xsd">
    <tripinfo id="7" depart="2.00" departLane="422688973_0" departPos="5.10" departSpeed="0.00" departDelay="0.00" arrival="52.00" arrivalLane="-318908683#1_0" arrivalPos="71.22" arrivalSpeed="10.37" duration="50.00" routeLength="684.23" waitingTime="2.00" waitingCount="1" stopTime="0.00" timeLoss="15.83" rerouteNo="0" devices="tripinfo_7" vType="DEFAULT_VEHTYPE" speedFactor="0.83" vaporized=""/>
    <tripinfo id="2" depart="1.00" departLane="318908683#0_0" departPos="5.10" departSpeed="0.00" departDelay="0.00" arrival="77.00" arrivalLane="260998164#0_0" arrivalPos="257.55" arrivalSpeed="29.41" duration="76.00" routeLength="939.98" waitingTime="28.00" waitingCount="1" stopTime="0.00" timeLoss="40.19" rerouteNo="0" devices="tripinfo_2" vType="DEFAULT_VEHTYPE" speedFactor="1.06" vaporized=""/>
    <tripinfo id="21" depart="19.00" departLane="318908683#0_0" departPos="5.10" departSpeed="0.00" departDelay="2.00" arrival="77.00" arrivalLane="918280984_0" arrivalPos="38.78" arrivalSpeed="14.95" duration="58.00" routeLength="693.58" waitingTime="14.00" waitingCount="1" stopTime="0.00" timeLoss="31.00" rerouteNo="0" devices="tripinfo_21" vType="DEFAULT_VEHTYPE" speedFactor="1.16" vaporized=""/>
    <tripinfo id="15" depart="12.00" departLane="105681660#12_0" departPos="5.10" departSpeed="0.00" departDelay="0.00" arrival="79.00" arrivalLane="-597602753#1_0" arrivalPos="143.59" arrivalSpeed="23.81" duration="67.00" routeLength="1380.56" waitingTime="0.00" waitingCount="0" stopTime="0.00" timeLoss="10.81" rerouteNo="0" devices="tripinfo_15" vType="DEFAULT_VEHTYPE" speedFactor="1.12" vaporized=""/>
    <tripinfo id="40" depart="37.00" departLane="318908683#0_0" departPos="5.10" departSpeed="0.00" departDelay="0.00" arrival="86.00" arrivalLane="260998164#0_0" arrivalPos="257.55" arrivalSpeed="30.39" duration="49.00" routeLength="939.98" waitingTime="0.00" waitingCount="0" stopTime="0.00" timeLoss="15.04" rerouteNo="0" devices="tripinfo_40" vType="DEFAULT_VEHTYPE" speedFactor="1.10" vaporized=""/>
    <tripinfo id="50" depart="46.00" departLane="318908683#0_0" departPos="5.10" departSpeed="0.00" departDelay="0.00" arrival="87.00" arrivalLane="918280984_0" arrivalPos="38.78" arrivalSpeed="11.12" duration="41.00" routeLength="693.58" waitingTime="0.00" waitingCount="0" stopTime="0.00" timeLoss="6.26" rerouteNo="0" devices="tripinfo_50" vType="DEFAULT_VEHTYPE" speedFactor="0.88" vaporized=""/>
    <tripinfo id="55" depart="49.00" departLane="318908683#0_0" departPos="5.10" departSpeed="0.00" departDelay="0.00" arrival="89.00" arrivalLane="918280984_0" arrivalPos="38.78" arrivalSpeed="14.22" duration="40.00" routeLength="693.58" waitingTime="0.00" waitingCount="0" stopTime="0.00" timeLoss="11.78" rerouteNo="0" devices="tripinfo_55" vType="DEFAULT_VEHTYPE" speedFactor="1.10" vaporized=""/>
    <tripinfo id="5" depart="2.00" departLane="422685671#2_0" departPos="5.10" departSpeed="0.00" departDelay="0.00" arrival="97.00" arrivalLane="-597602756#0_0" arrivalPos="325.99" arrivalSpeed="23.34" duration="95.00" routeLength="1778.05" waitingTime="0.00" waitingCount="0" stopTime="0.00" timeLoss="21.77" rerouteNo="0" devices="tripinfo_5" vType="DEFAULT_VEHTYPE" speedFactor="1.08" vaporized=""/>
    <tripinfo id="32" depart="30.00" departLane="422688973_0" departPos="5.10" departSpeed="0.00" departDelay="0.00" arrival="97.00" arrivalLane="15374898#0-AddedOffRampEdge_0" arrivalPos="100.00" arrivalSpeed="31.55" duration="67.00" routeLength="1006.54" waitingTime="14.00" waitingCount="1" stopTime="0.00" timeLoss="35.76" rerouteNo="0" devices="tripinfo_32" vType="DEFAULT_VEHTYPE" speedFactor="1.18" vaporized=""/>
    <tripinfo id="33" depart="30.00" departLane="105681660#12_0" departPos="5.10" departSpeed="0.00" departDelay="0.00" arrival="106.00" arrivalLane="-597602753#1_0" arrivalPos="143.59" arrivalSpeed="25.08" duration="76.00" routeLength="1380.56" waitingTime="3.00" waitingCount="1" stopTime="0.00" timeLoss="20.74" rerouteNo="0" devices="tripinfo_33" vType="DEFAULT_VEHTYPE" speedFactor="1.15" vaporized=""/>
    <tripinfo id="39" depart="37.00" departLane="422688973_0" departPos="5.10" departSpeed="0.00" departDelay="0.00" arrival="111.00" arrivalLane="260998164#0_0" arrivalPos="257.55" arrivalSpeed="32.16" duration="74.00" routeLength="1470.06" waitingTime="8.00" waitingCount="1" stopTime="0.00" timeLoss="27.34" rerouteNo="0" devices="tripinfo_39" vType="DEFAULT_VEHTYPE" speedFactor="1.18" vaporized=""/>
    <tripinfo id="28" depart="24.00" departLane="-260998164#3_0" departPos="5.10" departSpeed="0.00" departDelay="0.00" arrival="113.00" arrivalLane="15374898#0-AddedOffRampEdge_1" arrivalPos="100.00" arrivalSpeed="24.45" duration="89.00" routeLength="1332.80" waitingTime="20.00" waitingCount="1" stopTime="0.00" timeLoss="36.38" rerouteNo="0" devices="tripinfo_28" vType="DEFAULT_VEHTYPE" speedFactor="0.92" vaporized=""/>
    <tripinfo id="12" depart="8.00" departLane="-260998164#3_0" departPos="5.10" departSpeed="0.00" departDelay="0.00" arrival="114.00" arrivalLane="15374898#0-AddedOffRampEdge_0" arrivalPos="100.00" arrivalSpeed="26.64" duration="106.00" routeLength="1332.80" waitingTime="38.00" waitingCount="1" stopTime="0.00" timeLoss="61.41" rerouteNo="0" devices="tripinfo_12" vType="DEFAULT_VEHTYPE" speedFactor="1.09" vaporized=""/>
    <tripinfo id="38" depart="36.00" departLane="105681660#12_0" departPos="5.10" departSpeed="0.00" departDelay="0.00" arrival="115.00" arrivalLane="-597602753#1_0" arrivalPos="143.59" arrivalSpeed="20.91" duration="79.00" routeLength="1380.56" waitingTime="0.00" waitingCount="0" stopTime="0.00" timeLoss="13.13" rerouteNo="0" devices="tripinfo_38" vType="DEFAULT_VEHTYPE" speedFactor="0.97" vaporized=""/>
    <tripinfo id="44" depart="41.00" departLane="-260998164#3_0" departPos="5.10" departSpeed="0.00" departDelay="0.00" arrival="115.00" arrivalLane="15374898#0-AddedOffRampEdge_1" arrivalPos="100.00" arrivalSpeed="28.35" duration="74.00" routeLength="1332.80" waitingTime="9.00" waitingCount="1" stopTime="0.00" timeLoss="29.29" rerouteNo="0" devices="tripinfo_44" vType="DEFAULT_VEHTYPE" speedFactor="1.09" vaporized=""/>
    <tripinfo id="11" depart="8.00" departLane="422685671#2_0" departPos="5.10" departSpeed="0.00" departDelay="0.00" arrival="119.00" arrivalLane="-597602756#0_0" arrivalPos="325.99" arrivalSpeed="19.01" duration="111.00" routeLength="1778.05" waitingTime="0.00" waitingCount="0" stopTime="0.00" timeLoss="19.60" rerouteNo="0" devices="tripinfo_11" vType="DEFAULT_VEHTYPE" speedFactor="0.86" vaporized=""/>
    <tripinfo id="17" depart="13.00" departLane="318908683#0_0" departPos="5.10" departSpeed="0.00" departDelay="0.00" arrival="123.00" arrivalLane="-597602753#1_0" arrivalPos="143.59" arrivalSpeed="19.59" duration="110.00" routeLength="1208.14" waitingTime="24.00" waitingCount="2" stopTime="0.00" timeLoss="49.02" rerouteNo="0" devices="tripinfo_17" vType="DEFAULT_VEHTYPE" speedFactor="0.93" vaporized=""/>
    <tripinfo id="30" depart="29.00" departLane="597602756#0_0" departPos="5.10" departSpeed="0.00" departDelay="2.00" arrival="124.00" arrivalLane="260998164#0_0" arrivalPos="257.55" arrivalSpeed="30.32" duration="95.00" routeLength="1239.91" waitingTime="0.00" waitingCount="0" stopTime="0.00" timeLoss="29.88" rerouteNo="0" devices="tripinfo_30" vType="DEFAULT_VEHTYPE" speedFactor="1.13" vaporized=""/>
    <tripinfo id="4" depart="2.00" departLane="105681660#12_0" departPos="5.10" departSpeed="0.00" departDelay="0.00" arrival="125.00" arrivalLane="-318908683#1_0" arrivalPos="71.22" arrivalSpeed="13.84" duration="123.00" routeLength="1835.34" waitingTime="0.00" waitingCount="0" stopTime="0.00" timeLoss="25.48" rerouteNo="0" devices="tripinfo_4" vType="DEFAULT_VEHTYPE" speedFactor="1.01" vaporized=""/>
    <tripinfo id="31" depart="30.00" departLane="-260998164#3_0" departPos="5.10" departSpeed="0.00" departDelay="2.00" arrival="125.00" arrivalLane="-597602756#0_0" arrivalPos="325.99" arrivalSpeed="20.30" duration="95.00" routeLength="1231.40" waitingTime="0.00" waitingCount="0" stopTime="0.00" timeLoss="16.90" rerouteNo="0" devices="tripinfo_31" vType="DEFAULT_VEHTYPE" speedFactor="0.93" vaporized=""/>
    <tripinfo id="42" depart="40.00" departLane="422685671#2_0" departPos="5.10" departSpeed="0.00" departDelay="0.00" arrival="127.00" arrivalLane="260998164#0_0" arrivalPos="257.55" arrivalSpeed="28.54" duration="87.00" routeLength="1329.43" waitingTime="22.00" waitingCount="1" stopTime="0.00" timeLoss="39.62" rerouteNo="0" devices="tripinfo_42" vType="DEFAULT_VEHTYPE" speedFactor="1.03" vaporized=""/>
    <tripinfo id="14" depart="11.00" departLane="-260998164#3_0" departPos="5.10" departSpeed="0.00" departDelay="0.00" arrival="128.00" arrivalLane="-597602753#1_0" arrivalPos="143.59" arrivalSpeed="22.78" duration="117.00" routeLength="1969.75" waitingTime="8.00" waitingCount="1" stopTime="0.00" timeLoss="38.48" rerouteNo="0" devices="tripinfo_14" vType="DEFAULT_VEHTYPE" speedFactor="1.05" vaporized=""/>
    <tripinfo id="36" depart="33.00" departLane="-260998164#3_0" departPos="5.10" departSpeed="0.00" departDelay="0.00" arrival="129.00" arrivalLane="422688976#1_1" arrivalPos="294.40" arrivalSpeed="27.63" duration="96.00" routeLength="1702.46" waitingTime="7.00" waitingCount="1" stopTime="0.00" timeLoss="33.14" rerouteNo="0" devices="tripinfo_36" vType="DEFAULT_VEHTYPE" speedFactor="0.99" vaporized=""/>
    <tripinfo id="29" depart="27.00" departLane="-260998164#3_0" departPos="5.10" departSpeed="0.00" departDelay="2.00" arrival="131.00" arrivalLane="422688976#1_1" arrivalPos="294.40" arrivalSpeed="25.12" duration="104.00" routeLength="1712.42" waitingTime="20.00" waitingCount="1" stopTime="0.00" timeLoss="37.54" rerouteNo="0" devices="tripinfo_29" vType="DEFAULT_VEHTYPE" speedFactor="0.95" vaporized=""/>
    <tripinfo id="19" depart="16.00" departLane="318908683#0_0" departPos="5.10" departSpeed="0.00" departDelay="2.00" arrival="138.00" arrivalLane="-105681660#20_0" arrivalPos="806.12" arrivalSpeed="19.78" duration="122.00" routeLength="1436.85" waitingTime="22.00" waitingCount="2" stopTime="0.00" timeLoss="49.29" rerouteNo="0" devices="tripinfo_19" vType="DEFAULT_VEHTYPE" speedFactor="0.94" vaporized=""/>
    <tripinfo id="9" depart="4.00" departLane="918280985_0" departPos="5.10" departSpeed="0.00" departDelay="0.00" arrival="143.00" arrivalLane="-318908683#1_0" arrivalPos="71.22" arrivalSpeed="11.33" duration="139.00" routeLength="674.50" waitingTime="86.00" waitingCount="2" stopTime="0.00" timeLoss="104.88" rerouteNo="0" devices="tripinfo_9" vType="DEFAULT_VEHTYPE" speedFactor="0.89" vaporized=""/>
    <tripinfo id="27" depart="24.00" departLane="318908683#0_0" departPos="5.10" departSpeed="0.00" departDelay="0.00" arrival="143.00" arrivalLane="-105681660#20_0" arrivalPos="806.12" arrivalSpeed="18.49" duration="119.00" routeLength="1436.85" waitingTime="15.00" waitingCount="2" stopTime="0.00" timeLoss="41.79" rerouteNo="0" devices="tripinfo_27" vType="DEFAULT_VEHTYPE" speedFactor="0.87" vaporized=""/>
    <tripinfo id="60" depart="58.00" departLane="918280985_0" departPos="5.10" departSpeed="0.00" departDelay="0.00" arrival="143.00" arrivalLane="15374898#0-AddedOffRampEdge_0" arrivalPos="100.00" arrivalSpeed="27.51" duration="85.00" routeLength="996.81" waitingTime="27.00" waitingCount="1" stopTime="0.00" timeLoss="47.36" rerouteNo="0" devices="tripinfo_60" vType="DEFAULT_VEHTYPE" speedFactor="1.02" vaporized=""/>
    <tripinfo id="35" depart="33.00" departLane="422688973_0" departPos="5.10" departSpeed="0.00" departDelay="1.00" arrival="145.00" arrivalLane="-318908683#1_0" arrivalPos="71.22" arrivalSpeed="15.20" duration="112.00" routeLength="684.23" waitingTime="62.00" waitingCount="2" stopTime="0.00" timeLoss="87.50" rerouteNo="0" devices="tripinfo_35" vType="DEFAULT_VEHTYPE" speedFactor="1.17" vaporized=""/>
    <tripinfo id="72" depart="67.00" departLane="597602753#0_0" departPos="5.10" departSpeed="0.00" departDelay="0.00" arrival="145.00" arrivalLane="-105681660#20_0" arrivalPos="806.12" arrivalSpeed="21.43" duration="78.00" routeLength="1387.70" waitingTime="0.00" waitingCount="0" stopTime="0.00" timeLoss="15.30" rerouteNo="0" devices="tripinfo_72" vType="DEFAULT_VEHTYPE" speedFactor="1.02" vaporized=""/>
    <tripinfo id="68" depart="64.00" departLane="105681660#12_0" departPos="5.10" departSpeed="0.00" departDelay="2.00" arrival="146.00" arrivalLane="-597602753#1_0" arrivalPos="143.59" arrivalSpeed="19.58" duration="82.00" routeLength="1380.56" waitingTime="0.00" waitingCount="0" stopTime="0.00" timeLoss="12.18" rerouteNo="0" devices="tripinfo_68" vType="DEFAULT_VEHTYPE" speedFactor="0.91" vaporized=""/>
    <tripinfo id="88" depart="97.00" departLane="918280985_0" departPos="5.10" departSpeed="0.00" departDelay="9.00" arrival="147.00" arrivalLane="-318908683#1_0" arrivalPos="71.22" arrivalSpeed="13.15" duration="50.00" routeLength="674.50" waitingTime="2.00" waitingCount="1" stopTime="0.00" timeLoss="19.68" rerouteNo="0" devices="tripinfo_88" vType="DEFAULT_VEHTYPE" speedFactor="1.00" vaporized=""/>
    <tripinfo id="6" depart="2.00" departLane="597602753#0_0" departPos="5.10" departSpeed="0.00" departDelay="0.00" arrival="148.00" arrivalLane="-318908683#1_0" arrivalPos="71.22" arrivalSpeed="13.50" duration="146.00" routeLength="1642.11" waitingTime="16.00" waitingCount="2" stopTime="0.00" timeLoss="53.88" rerouteNo="0" devices="tripinfo_6" vType="DEFAULT_VEHTYPE" speedFactor="1.03" vaporized=""/>
    <tripinfo id="48" depart="43.00" departLane="422688973_0" departPos="5.10" departSpeed="0.00" departDelay="0.00" arrival="148.00" arrivalLane="-597602753#1_0" arrivalPos="143.59" arrivalSpeed="21.72" duration="105.00" routeLength="1114.81" waitingTime="18.00" waitingCount="1" stopTime="0.00" timeLoss="38.89" rerouteNo="0" devices="tripinfo_48" vType="DEFAULT_VEHTYPE" speedFactor="1.00" vaporized=""/>
    <tripinfo id="91" depart="100.00" departLane="918280985_0" departPos="5.10" departSpeed="0.00" departDelay="4.00" arrival="153.00" arrivalLane="15374898#0-AddedOffRampEdge_0" arrivalPos="100.00" arrivalSpeed="27.12" duration="53.00" routeLength="996.81" waitingTime="0.00" waitingCount="0" stopTime="0.00" timeLoss="14.57" rerouteNo="0" devices="tripinfo_91" vType="DEFAULT_VEHTYPE" speedFactor="1.02" vaporized=""/>
    <tripinfo id="41" depart="37.00" departLane="918280985_0" departPos="5.10" departSpeed="0.00" departDelay="0.00" arrival="155.00" arrivalLane="-597602756#0_0" arrivalPos="325.99" arrivalSpeed="19.33" duration="118.00" routeLength="1890.39" waitingTime="0.00" waitingCount="0" stopTime="0.00" timeLoss="23.49" rerouteNo="0" devices="tripinfo_41" vType="DEFAULT_VEHTYPE" speedFactor="0.90" vaporized=""/>
    <tripinfo id="3" depart="1.00" departLane="918280985_0" departPos="5.10" departSpeed="0.00" departDelay="0.00" arrival="156.00" arrivalLane="-597602753#1_0" arrivalPos="143.59" arrivalSpeed="20.33" duration="155.00" routeLength="1072.66" waitingTime="55.00" waitingCount="2" stopTime="0.00" timeLoss="76.38" rerouteNo="0" devices="tripinfo_3" vType="DEFAULT_VEHTYPE" speedFactor="0.94" vaporized=""/>
    <tripinfo id="13" depart="11.00" departLane="597602753#0_0" departPos="5.10" departSpeed="0.00" departDelay="0.00" arrival="156.00" arrivalLane="15374898#0-AddedOffRampEdge_0" arrivalPos="100.00" arrivalSpeed="28.31" duration="145.00" routeLength="1964.42" waitingTime="6.00" waitingCount="1" stopTime="0.00" timeLoss="43.50" rerouteNo="0" devices="tripinfo_13" vType="DEFAULT_VEHTYPE" speedFactor="1.03" vaporized=""/>
    <tripinfo id="69" depart="63.00" departLane="422685671#2_0" departPos="5.10" departSpeed="0.00" departDelay="0.00" arrival="156.00" arrivalLane="918280984_0" arrivalPos="38.78" arrivalSpeed="11.61" duration="93.00" routeLength="1069.78" waitingTime="25.00" waitingCount="1" stopTime="0.00" timeLoss="45.58" rerouteNo="0" devices="tripinfo_69" vType="DEFAULT_VEHTYPE" speedFactor="0.91" vaporized=""/>
    <tripinfo id="109" depart="121.00" departLane="422688973_0" departPos="5.10" departSpeed="0.00" departDelay="0.00" arrival="158.00" arrivalLane="-318908683#1_0" arrivalPos="71.22" arrivalSpeed="14.19" duration="37.00" routeLength="684.23" waitingTime="0.00" waitingCount="0" stopTime="0.00" timeLoss="9.94" rerouteNo="0" devices="tripinfo_109" vType="DEFAULT_VEHTYPE" speedFactor="1.03" vaporized=""/>
    <tripinfo id="54" depart="50.00" departLane="422688973_0" departPos="5.10" departSpeed="0.00" departDelay="1.00" arrival="159.00" arrivalLane="-597602756#0_0" arrivalPos="325.99" arrivalSpeed="21.93" duration="109.00" routeLength="1900.12" waitingTime="0.00" waitingCount="0" stopTime="0.00" timeLoss="27.43" rerouteNo="0" devices="tripinfo_54" vType="DEFAULT_VEHTYPE" speedFactor="1.02" vaporized=""/>
    <tripinfo id="53" depart="49.00" departLane="422688973_0" departPos="5.10" departSpeed="0.00" departDelay="0.00" arrival="160.00" arrivalLane="-597602753#1_0" arrivalPos="143.59" arrivalSpeed="25.27" duration="111.00" routeLength="1063.91" waitingTime="20.00" waitingCount="3" stopTime="0.00" timeLoss="49.26" rerouteNo="0" devices="tripinfo_53" vType="DEFAULT_VEHTYPE" speedFactor="1.17" vaporized=""/>
    <tripinfo id="71" depart="65.00" departLane="422688973_0" departPos="5.10" departSpeed="0.00" departDelay="0.00" arrival="165.00" arrivalLane="15374898#0-AddedOffRampEdge_0" arrivalPos="100.00" arrivalSpeed="27.76" duration="100.00" routeLength="1006.54" waitingTime="42.00" waitingCount="1" stopTime="0.00" timeLoss="63.31" rerouteNo="0" devices="tripinfo_71" vType="DEFAULT_VEHTYPE" speedFactor="1.02" vaporized=""/>
    <tripinfo id="73" depart="70.00" departLane="597602753#0_0" departPos="5.10" departSpeed="0.00" departDelay="3.00" arrival="165.00" arrivalLane="918280984_0" arrivalPos="38.78" arrivalSpeed="12.47" duration="95.00" routeLength="1061.00" waitingTime="3.00" waitingCount="1" stopTime="0.00" timeLoss="20.57" rerouteNo="0" devices="tripinfo_73" vType="DEFAULT_VEHTYPE" speedFactor="0.97" vaporized=""/>
    <tripinfo id="20" depart="16.00" departLane="-260998164#3_0" departPos="5.10" departSpeed="0.00" departDelay="0.00" arrival="166.00" arrivalLane="-105681660#20_0" arrivalPos="806.12" arrivalSpeed="20.69" duration="150.00" routeLength="2198.46" waitingTime="18.00" waitingCount="2" stopTime="0.00" timeLoss="51.11" rerouteNo="0" devices="tripinfo_20" vType="DEFAULT_VEHTYPE" speedFactor="0.94" vaporized=""/>
    <tripinfo id="56" depart="52.00" departLane="105681660#12_0" departPos="5.10" departSpeed="0.00" departDelay="0.00" arrival="167.00" arrivalLane="918280984_0" arrivalPos="38.78" arrivalSpeed="13.46" duration="115.00" routeLength="1405.13" waitingTime="8.00" waitingCount="2" stopTime="0.00" timeLoss="34.05" rerouteNo="0" devices="tripinfo_56" vType="DEFAULT_VEHTYPE" speedFactor="1.00" vaporized=""/>
    <tripinfo id="24" depart="23.00" departLane="597602756#0_0" departPos="5.10" departSpeed="0.00" departDelay="1.00" arrival="168.00" arrivalLane="-105681660#20_0" arrivalPos="806.12" arrivalSpeed="20.62" duration="145.00" routeLength="1867.67" waitingTime="29.00" waitingCount="2" stopTime="0.00" timeLoss="56.96" rerouteNo="0" devices="tripinfo_24" vType="DEFAULT_VEHTYPE" speedFactor="0.97" vaporized=""/>
    <tripinfo id="82" depart="82.00" departLane="-260998164#3_0" departPos="5.10" departSpeed="0.00" departDelay="2.00" arrival="168.00" arrivalLane="-597602756#0_0" arrivalPos="325.99" arrivalSpeed="22.09" duration="86.00" routeLength="1231.40" waitingTime="0.00" waitingCount="0" stopTime="0.00" timeLoss="16.61" rerouteNo="0" devices="tripinfo_82" vType="DEFAULT_VEHTYPE" speedFactor="1.03" vaporized=""/>
    <tripinfo id="8" depart="2.00" departLane="-260998164#3_0" departPos="5.10" departSpeed="0.00" departDelay="0.00" arrival="169.00" arrivalLane="-105681660#20_0" arrivalPos="806.12" arrivalSpeed="22.02" duration="167.00" routeLength="2160.35" waitingTime="25.00" waitingCount="3" stopTime="0.00" timeLoss="66.57" rerouteNo="0" devices="tripinfo_8" vType="DEFAULT_VEHTYPE" speedFactor="1.05" vaporized=""/>
    <tripinfo id="62" depart="61.00" departLane="105681660#12_0" departPos="5.10" departSpeed="0.00" departDelay="2.00" arrival="169.00" arrivalLane="918280984_0" arrivalPos="38.78" arrivalSpeed="14.53" duration="108.00" routeLength="1405.13" waitingTime="0.00" waitingCount="0" stopTime="0.00" timeLoss="32.82" rerouteNo="0" devices="tripinfo_62" vType="DEFAULT_VEHTYPE" speedFactor="1.08" vaporized=""/>
    <tripinfo id="34" depart="33.00" departLane="105681660#12_0" departPos="5.10" departSpeed="0.00" departDelay="2.00" arrival="170.00" arrivalLane="422688976#1_0" arrivalPos="294.40" arrivalSpeed="27.55" duration="137.00" routeLength="1630.66" waitingTime="27.00" waitingCount="1" stopTime="0.00" timeLoss="50.07" rerouteNo="0" devices="tripinfo_34" vType="DEFAULT_VEHTYPE" speedFactor="1.01" vaporized=""/>
    <tripinfo id="61" depart="58.00" departLane="105681660#12_0" departPos="5.10" departSpeed="0.00" departDelay="0.00" arrival="171.00" arrivalLane="-597602756#0_0" arrivalPos="325.99" arrivalSpeed="20.82" duration="113.00" routeLength="1877.95" waitingTime="1.00" waitingCount="1" stopTime="0.00" timeLoss="23.56" rerouteNo="0" devices="tripinfo_61" vType="DEFAULT_VEHTYPE" speedFactor="0.97" vaporized=""/>
    <tripinfo id="83" depart="80.00" departLane="597602753#0_0" departPos="5.10" departSpeed="0.00" departDelay="0.00" arrival="171.00" arrivalLane="918280984_0" arrivalPos="38.78" arrivalSpeed="13.37" duration="91.00" routeLength="1061.00" waitingTime="0.00" waitingCount="0" stopTime="0.00" timeLoss="17.99" rerouteNo="0" devices="tripinfo_83" vType="DEFAULT_VEHTYPE" speedFactor="1.00" vaporized=""/>
    <tripinfo id="66" depart="62.00" departLane="422688973_0" departPos="5.10" departSpeed="0.00" departDelay="0.00" arrival="181.00" arrivalLane="-105681660#20_0" arrivalPos="806.12" arrivalSpeed="20.26" duration="119.00" routeLength="1352.23" waitingTime="16.00" waitingCount="2" stopTime="0.00" timeLoss="38.22" rerouteNo="0" devices="tripinfo_66" vType="DEFAULT_VEHTYPE" speedFactor="0.94" vaporized=""/>
    <tripinfo id="43" depart="40.00" departLane="597602753#0_0" departPos="5.10" departSpeed="0.00" departDelay="0.00" arrival="182.00" arrivalLane="-105681660#20_0" arrivalPos="806.12" arrivalSpeed="20.48" duration="142.00" routeLength="1856.78" waitingTime="9.00" waitingCount="1" stopTime="0.00" timeLoss="29.39" rerouteNo="0" devices="tripinfo_43" vType="DEFAULT_VEHTYPE" speedFactor="0.96" vaporized=""/>
    <tripinfo id="92" depart="96.00" departLane="318908683#0_0" departPos="5.10" departSpeed="0.00" departDelay="0.00" arrival="182.00" arrivalLane="260998164#0_0" arrivalPos="257.55" arrivalSpeed="28.10" duration="86.00" routeLength="939.98" waitingTime="36.00" waitingCount="1" stopTime="0.00" timeLoss="48.98" rerouteNo="0" devices="tripinfo_92" vType="DEFAULT_VEHTYPE" speedFactor="1.02" vaporized=""/>
    <tripinfo id="22" depart="20.00" departLane="422685671#2_0" departPos="5.10" departSpeed="0.00" departDelay="0.00" arrival="183.00" arrivalLane="-597602753#1_0" arrivalPos="143.59" arrivalSpeed="22.03" duration="163.00" routeLength="1584.34" waitingTime="66.00" waitingCount="2" stopTime="0.00" timeLoss="94.73" rerouteNo="0" devices="tripinfo_22" vType="DEFAULT_VEHTYPE" speedFactor="1.02" vaporized=""/>
    <tripinfo id="16" depart="12.00" departLane="597602756#0_0" departPos="5.10" departSpeed="0.00" departDelay="0.00" arrival="186.00" arrivalLane="422688976#1_0" arrivalPos="294.40" arrivalSpeed="27.14" duration="174.00" routeLength="2413.02" waitingTime="25.00" waitingCount="3" stopTime="0.00" timeLoss="57.81" rerouteNo="0" devices="tripinfo_16" vType="DEFAULT_VEHTYPE" speedFactor="0.99" vaporized=""/>
    <tripinfo id="105" depart="113.00" departLane="318908683#0_0" departPos="5.10" departSpeed="0.00" departDelay="0.00" arrival="187.00" arrivalLane="260998164#0_0" arrivalPos="257.55" arrivalSpeed="25.21" duration="74.00" routeLength="939.98" waitingTime="21.00" waitingCount="1" stopTime="0.00" timeLoss="34.35" rerouteNo="0" devices="tripinfo_105" vType="DEFAULT_VEHTYPE" speedFactor="0.95" vaporized=""/>
    <tripinfo id="51" depart="46.00" departLane="597602753#0_0" departPos="5.10" departSpeed="0.00" departDelay="0.00" arrival="188.00" arrivalLane="-105681660#20_0" arrivalPos="806.12" arrivalSpeed="18.48" duration="142.00" routeLength="1856.78" waitingTime="0.00" waitingCount="0" stopTime="0.00" timeLoss="16.07" rerouteNo="0" devices="tripinfo_51" vType="DEFAULT_VEHTYPE" speedFactor="0.85" vaporized=""/>
    <tripinfo id="138" depart="143.00" departLane="318908683#0_0" departPos="5.10" departSpeed="0.00" departDelay="0.00" arrival="188.00" arrivalLane="260998164#0_0" arrivalPos="257.55" arrivalSpeed="27.69" duration="45.00" routeLength="939.98" waitingTime="0.00" waitingCount="0" stopTime="0.00" timeLoss="11.47" rerouteNo="0" devices="tripinfo_138" vType="DEFAULT_VEHTYPE" speedFactor="1.12" vaporized=""/>
    <tripinfo id="26" depart="23.00" departLane="422685671#2_0" departPos="5.10" departSpeed="0.00" departDelay="0.00" arrival="190.00" arrivalLane="-597602753#1_0" arrivalPos="143.59" arrivalSpeed="17.63" duration="167.00" routeLength="1584.34" waitingTime="56.00" waitingCount="1" stopTime="0.00" timeLoss="83.85" rerouteNo="0" devices="tripinfo_26" vType="DEFAULT_VEHTYPE" speedFactor="0.83" vaporized=""/>
    <tripinfo id="46" depart="43.00" departLane="422685671#2_0" departPos="5.10" departSpeed="0.00" departDelay="1.00" arrival="190.00" arrivalLane="-597602756#0_0" arrivalPos="325.99" arrivalSpeed="22.59" duration="147.00" routeLength="1778.05" waitingTime="40.00" waitingCount="1" stopTime="0.00" timeLoss="71.46" rerouteNo="0" devices="tripinfo_46" vType="DEFAULT_VEHTYPE" speedFactor="1.04" vaporized=""/>
    <tripinfo id="75" depart="69.00" departLane="422688973_0" departPos="5.10" departSpeed="0.00" departDelay="0.00" arrival="190.00" arrivalLane="-105681660#20_0" arrivalPos="806.12" arrivalSpeed="22.57" duration="121.00" routeLength="1352.23" waitingTime="15.00" waitingCount="1" stopTime="0.00" timeLoss="49.56" rerouteNo="0" devices="tripinfo_75" vType="DEFAULT_VEHTYPE" speedFactor="1.06" vaporized=""/>
    <tripinfo id="49" depart="48.00" departLane="918280985_0" departPos="5.10" departSpeed="0.00" departDelay="3.00" arrival="191.00" arrivalLane="-105681660#20_0" arrivalPos="806.12" arrivalSpeed="18.93" duration="143.00" routeLength="1360.98" waitingTime="35.00" waitingCount="2" stopTime="0.00" timeLoss="58.44" rerouteNo="0" devices="tripinfo_49" vType="DEFAULT_VEHTYPE" speedFactor="0.90" vaporized=""/>
    <tripinfo id="52" depart="48.00" departLane="422685671#2_0" departPos="5.10" departSpeed="0.00" departDelay="0.00" arrival="192.00" arrivalLane="-597602753#1_0" arrivalPos="143.59" arrivalSpeed="18.44" duration="144.00" routeLength="1584.34" waitingTime="34.00" waitingCount="1" stopTime="0.00" timeLoss="62.69" rerouteNo="0" devices="tripinfo_52" vType="DEFAULT_VEHTYPE" speedFactor="0.85" vaporized=""/>
    <tripinfo id="63" depart="59.00" departLane="422685671#2_0" departPos="5.10" departSpeed="0.00" departDelay="0.00" arrival="193.00" arrivalLane="-597602753#1_0" arrivalPos="143.59" arrivalSpeed="20.93" duration="134.00" routeLength="1584.34" waitingTime="28.00" waitingCount="1" stopTime="0.00" timeLoss="71.98" rerouteNo="0" devices="tripinfo_63" vType="DEFAULT_VEHTYPE" speedFactor="1.12" vaporized=""/>
    <tripinfo id="140" depart="146.00" departLane="318908683#0_0" departPos="5.10" departSpeed="0.00" departDelay="1.00" arrival="193.00" arrivalLane="422688976#1_1" arrivalPos="294.40" arrivalSpeed="27.51" duration="47.00" routeLength="940.85" waitingTime="0.00" waitingCount="0" stopTime="0.00" timeLoss="10.10" rerouteNo="0" devices="tripinfo_140" vType="DEFAULT_VEHTYPE" speedFactor="1.00" vaporized=""/>
    <tripinfo id="145" depart="149.00" departLane="318908683#0_0" departPos="5.10" departSpeed="0.00" departDelay="0.00" arrival="194.00" arrivalLane="422688976#1_1" arrivalPos="294.40" arrivalSpeed="30.10" duration="45.00" routeLength="940.85" waitingTime="0.00" waitingCount="0" stopTime="0.00" timeLoss="12.72" rerouteNo="0" devices="tripinfo_145" vType="DEFAULT_VEHTYPE" speedFactor="1.13" vaporized=""/>