<?xml version="1.0" encoding="UTF-8"?>

<!-- generated on 2023-04-24 13:11:42 by Eclipse SUMO sumo Version 1.16.0
<configuration xmlns:xsi="http://www.w3.org/2001/XMLSchema-instance" xsi:noNamespaceSchemaLocation="http://sumo.dlr.de/xsd/sumoConfiguration.xsd">

    <input>
        <net-file value="021/../configurations/maps/4corners_neighborhoods.net.xml"/>
        <route-files value="021/Trips_File_021.rou.xml"/>
        <additional-files value="021/../edgedata.add.xml"/>
    </input>

    <output>
        <output-prefix value="021/"/>
        <summary-output value="021/../summary_021.xml"/>
        <tripinfo-output value="021/../tripinfo_021.xml"/>
    </output>

    <time>
        <begin value="0"/>
    </time>

    <processing>
        <route-steps value="200"/>
        <no-internal-links value="False"/>
        <time-to-teleport value="300"/>
        <time-to-teleport.highways value="0"/>
        <eager-insert value="False"/>
    </processing>

    <report>
        <verbose value="true"/>
        <no-warnings value="False"/>
        <log value="021/../iteration_021.sumo.log"/>
        <no-step-log value="true"/>
    </report>

    <mesoscopic>
        <mesosim value="true"/>
        <meso-recheck value="0"/>
    </mesoscopic>

    <random_number>
        <random value="False"/>
    </random_number>

</configuration>
-->

<tripinfos xmlns:xsi="http://www.w3.org/2001/XMLSchema-instance" xsi:noNamespaceSchemaLocation="http://sumo.dlr.de/xsd/tripinfo_file.xsd">
    <tripinfo id="7" depart="2.00" departLane="" departPos="0.00" departSpeed="23.08" departDelay="0.00" arrival="32.00" arrivalLane="" arrivalPos="71.22" arrivalSpeed="11.54" duration="30.00" routeLength="612.32" waitingTime="0.00" waitingCount="0" stopTime="0.00" timeLoss="0.00" rerouteNo="0" devices="tripinfo_7" vType="DEFAULT_VEHTYPE" speedFactor="0.83" vaporized=""/>
    <tripinfo id="2" depart="1.00" departLane="" departPos="0.00" departSpeed="14.72" departDelay="0.00" arrival="33.00" arrivalLane="" arrivalPos="257.55" arrivalSpeed="29.45" duration="32.00" routeLength="854.05" waitingTime="0.00" waitingCount="0" stopTime="0.00" timeLoss="0.00" rerouteNo="0" devices="tripinfo_2" vType="DEFAULT_VEHTYPE" speedFactor="1.06" vaporized=""/>
    <tripinfo id="9" depart="4.00" departLane="" departPos="0.00" departSpeed="12.31" departDelay="0.00" arrival="34.00" arrivalLane="" arrivalPos="71.22" arrivalSpeed="12.31" duration="30.00" routeLength="617.84" waitingTime="0.00" waitingCount="0" stopTime="0.00" timeLoss="0.00" rerouteNo="0" devices="tripinfo_9" vType="DEFAULT_VEHTYPE" speedFactor="0.89" vaporized=""/>
    <tripinfo id="21" depart="17.00" departLane="" departPos="0.00" departSpeed="14.63" departDelay="0.00" arrival="40.00" arrivalLane="" arrivalPos="38.78" arrivalSpeed="16.08" duration="23.00" routeLength="594.71" waitingTime="0.00" waitingCount="0" stopTime="0.00" timeLoss="0.44" rerouteNo="0" devices="tripinfo_21" vType="DEFAULT_VEHTYPE" speedFactor="1.16" vaporized=""/>
    <tripinfo id="12" depart="8.00" departLane="" departPos="0.00" departSpeed="30.30" departDelay="0.00" arrival="48.00" arrivalLane="" arrivalPos="100.00" arrivalSpeed="30.30" duration="40.00" routeLength="1209.17" waitingTime="0.00" waitingCount="0" stopTime="0.00" timeLoss="0.00" rerouteNo="0" devices="tripinfo_12" vType="DEFAULT_VEHTYPE" speedFactor="1.09" vaporized=""/>
    <tripinfo id="35" depart="32.00" departLane="" departPos="0.00" departSpeed="32.55" departDelay="0.00" arrival="53.00" arrivalLane="" arrivalPos="71.22" arrivalSpeed="16.28" duration="21.00" routeLength="612.32" waitingTime="0.00" waitingCount="0" stopTime="0.00" timeLoss="0.00" rerouteNo="0" devices="tripinfo_35" vType="DEFAULT_VEHTYPE" speedFactor="1.17" vaporized=""/>
    <tripinfo id="32" depart="30.00" departLane="" departPos="0.00" departSpeed="32.74" departDelay="0.00" arrival="60.00" arrivalLane="" arrivalPos="100.00" arrivalSpeed="32.74" duration="30.00" routeLength="952.53" waitingTime="0.00" waitingCount="0" stopTime="0.00" timeLoss="0.00" rerouteNo="0" devices="tripinfo_32" vType="DEFAULT_VEHTYPE" speedFactor="1.18" vaporized=""/>
    <tripinfo id="3" depart="1.00" departLane="" departPos="0.00" departSpeed="13.03" departDelay="0.00" arrival="64.00" arrivalLane="" arrivalPos="143.59" arrivalSpeed="20.85" duration="63.00" routeLength="1015.95" waitingTime="0.00" waitingCount="0" stopTime="0.00" timeLoss="0.00" rerouteNo="0" devices="tripinfo_3" vType="DEFAULT_VEHTYPE" speedFactor="0.94" vaporized=""/>
    <tripinfo id="17" depart="13.00" departLane="" departPos="0.00" departSpeed="12.87" departDelay="0.00" arrival="68.00" arrivalLane="" arrivalPos="143.59" arrivalSpeed="20.59" duration="55.00" routeLength="1084.30" waitingTime="0.00" waitingCount="0" stopTime="0.00" timeLoss="0.00" rerouteNo="0" devices="tripinfo_17" vType="DEFAULT_VEHTYPE" speedFactor="0.93" vaporized=""/>
    <tripinfo id="40" depart="37.00" departLane="" departPos="0.00" departSpeed="15.31" departDelay="0.00" arrival="68.00" arrivalLane="" arrivalPos="257.55" arrivalSpeed="30.62" duration="31.00" routeLength="854.05" waitingTime="0.00" waitingCount="0" stopTime="0.00" timeLoss="0.00" rerouteNo="0" devices="tripinfo_40" vType="DEFAULT_VEHTYPE" speedFactor="1.10" vaporized=""/>
    <tripinfo id="15" depart="12.00" departLane="" departPos="0.00" departSpeed="24.95" departDelay="0.00" arrival="69.00" arrivalLane="" arrivalPos="143.59" arrivalSpeed="20.59" duration="57.00" routeLength="1330.63" waitingTime="0.00" waitingCount="0" stopTime="0.00" timeLoss="3.30" rerouteNo="0" devices="tripinfo_15" vType="DEFAULT_VEHTYPE" speedFactor="1.12" vaporized=""/>
    <tripinfo id="5" depart="2.00" departLane="" departPos="0.00" departSpeed="30.07" departDelay="0.00" arrival="70.00" arrivalLane="" arrivalPos="325.99" arrivalSpeed="24.06" duration="68.00" routeLength="1674.93" waitingTime="1.20" waitingCount="0" stopTime="0.00" timeLoss="1.62" rerouteNo="0" devices="tripinfo_5" vType="DEFAULT_VEHTYPE" speedFactor="1.08" vaporized=""/>
    <tripinfo id="28" depart="24.00" departLane="" departPos="0.00" departSpeed="25.48" departDelay="0.00" arrival="72.00" arrivalLane="" arrivalPos="100.00" arrivalSpeed="25.48" duration="48.00" routeLength="1209.17" waitingTime="0.00" waitingCount="0" stopTime="0.00" timeLoss="0.00" rerouteNo="0" devices="tripinfo_28" vType="DEFAULT_VEHTYPE" speedFactor="0.92" vaporized=""/>
    <tripinfo id="6" depart="2.00" departLane="" departPos="0.00" departSpeed="22.89" departDelay="0.00" arrival="73.00" arrivalLane="" arrivalPos="71.22" arrivalSpeed="14.31" duration="71.00" routeLength="1426.73" waitingTime="0.07" waitingCount="0" stopTime="0.00" timeLoss="0.07" rerouteNo="0" devices="tripinfo_6" vType="DEFAULT_VEHTYPE" speedFactor="1.03" vaporized=""/>
    <tripinfo id="50" depart="46.00" departLane="" departPos="0.00" departSpeed="12.18" departDelay="0.00" arrival="75.00" arrivalLane="" arrivalPos="38.78" arrivalSpeed="12.18" duration="29.00" routeLength="594.71" waitingTime="0.00" waitingCount="0" stopTime="0.00" timeLoss="0.00" rerouteNo="0" devices="tripinfo_50" vType="DEFAULT_VEHTYPE" speedFactor="0.88" vaporized=""/>
    <tripinfo id="55" depart="49.00" departLane="" departPos="0.00" departSpeed="15.22" departDelay="0.00" arrival="77.00" arrivalLane="" arrivalPos="38.78" arrivalSpeed="12.18" duration="28.00" routeLength="594.71" waitingTime="1.20" waitingCount="0" stopTime="0.00" timeLoss="4.45" rerouteNo="0" devices="tripinfo_55" vType="DEFAULT_VEHTYPE" speedFactor="1.10" vaporized=""/>
    <tripinfo id="39" depart="37.00" departLane="" departPos="0.00" departSpeed="32.77" departDelay="0.00" arrival="78.00" arrivalLane="" arrivalPos="257.55" arrivalSpeed="32.77" duration="41.00" routeLength="1324.09" waitingTime="0.00" waitingCount="0" stopTime="0.00" timeLoss="0.00" rerouteNo="0" devices="tripinfo_39" vType="DEFAULT_VEHTYPE" speedFactor="1.18" vaporized=""/>
    <tripinfo id="59" depart="54.00" departLane="" departPos="0.00" departSpeed="15.87" departDelay="0.00" arrival="79.00" arrivalLane="" arrivalPos="38.78" arrivalSpeed="12.17" duration="25.00" routeLength="594.71" waitingTime="0.27" waitingCount="0" stopTime="0.00" timeLoss="2.06" rerouteNo="0" devices="tripinfo_59" vType="DEFAULT_VEHTYPE" speedFactor="1.14" vaporized=""/>
    <tripinfo id="22" depart="20.00" departLane="" departPos="0.00" departSpeed="28.28" departDelay="0.00" arrival="81.00" arrivalLane="" arrivalPos="143.59" arrivalSpeed="22.62" duration="61.00" routeLength="1459.06" waitingTime="0.00" waitingCount="0" stopTime="0.00" timeLoss="0.00" rerouteNo="0" devices="tripinfo_22" vType="DEFAULT_VEHTYPE" speedFactor="1.02" vaporized=""/>
    <tripinfo id="44" depart="41.00" departLane="" departPos="0.00" departSpeed="30.33" departDelay="0.00" arrival="81.00" arrivalLane="" arrivalPos="100.00" arrivalSpeed="30.33" duration="40.00" routeLength="1209.17" waitingTime="0.00" waitingCount="0" stopTime="0.00" timeLoss="0.00" rerouteNo="0" devices="tripinfo_44" vType="DEFAULT_VEHTYPE" speedFactor="1.09" vaporized=""/>
    <tripinfo id="14" depart="11.00" departLane="" departPos="0.00" departSpeed="29.09" departDelay="0.00" arrival="82.00" arrivalLane="" arrivalPos="143.59" arrivalSpeed="22.62" duration="71.00" routeLength="1790.95" waitingTime="0.00" waitingCount="0" stopTime="0.00" timeLoss="0.72" rerouteNo="0" devices="tripinfo_14" vType="DEFAULT_VEHTYPE" speedFactor="1.05" vaporized=""/>
    <tripinfo id="19" depart="14.00" departLane="" departPos="0.00" departSpeed="11.48" departDelay="0.00" arrival="82.00" arrivalLane="" arrivalPos="806.12" arrivalSpeed="20.92" duration="68.00" routeLength="1363.89" waitingTime="0.00" waitingCount="0" stopTime="0.00" timeLoss="0.91" rerouteNo="0" devices="tripinfo_19" vType="DEFAULT_VEHTYPE" speedFactor="0.94" vaporized=""/>
    <tripinfo id="33" depart="30.00" departLane="" departPos="0.00" departSpeed="25.65" departDelay="0.00" arrival="83.00" arrivalLane="" arrivalPos="143.59" arrivalSpeed="22.62" duration="53.00" routeLength="1330.63" waitingTime="0.00" waitingCount="0" stopTime="0.00" timeLoss="1.10" rerouteNo="0" devices="tripinfo_33" vType="DEFAULT_VEHTYPE" speedFactor="1.15" vaporized=""/>
    <tripinfo id="42" depart="40.00" departLane="" departPos="0.00" departSpeed="28.62" departDelay="0.00" arrival="83.00" arrivalLane="" arrivalPos="257.55" arrivalSpeed="28.62" duration="43.00" routeLength="1228.81" waitingTime="0.00" waitingCount="0" stopTime="0.00" timeLoss="0.00" rerouteNo="0" devices="tripinfo_42" vType="DEFAULT_VEHTYPE" speedFactor="1.03" vaporized=""/>
    <tripinfo id="30" depart="27.00" departLane="" departPos="0.00" departSpeed="25.15" departDelay="0.00" arrival="85.00" arrivalLane="" arrivalPos="257.55" arrivalSpeed="31.44" duration="58.00" routeLength="1144.15" waitingTime="0.00" waitingCount="0" stopTime="0.00" timeLoss="1.01" rerouteNo="0" devices="tripinfo_30" vType="DEFAULT_VEHTYPE" speedFactor="1.13" vaporized=""/>
    <tripinfo id="29" depart="25.00" departLane="" departPos="0.00" departSpeed="22.78" departDelay="0.00" arrival="86.00" arrivalLane="" arrivalPos="294.40" arrivalSpeed="26.36" duration="61.00" routeLength="1556.98" waitingTime="0.04" waitingCount="0" stopTime="0.00" timeLoss="1.17" rerouteNo="0" devices="tripinfo_29" vType="DEFAULT_VEHTYPE" speedFactor="0.95" vaporized=""/>
    <tripinfo id="4" depart="2.00" departLane="" departPos="0.00" departSpeed="22.45" departDelay="0.00" arrival="87.00" arrivalLane="" arrivalPos="71.22" arrivalSpeed="14.03" duration="85.00" routeLength="1703.70" waitingTime="0.00" waitingCount="0" stopTime="0.00" timeLoss="0.00" rerouteNo="0" devices="tripinfo_4" vType="DEFAULT_VEHTYPE" speedFactor="1.01" vaporized=""/>
    <tripinfo id="8" depart="2.00" departLane="" departPos="0.00" departSpeed="29.05" departDelay="0.00" arrival="88.00" arrivalLane="" arrivalPos="806.12" arrivalSpeed="23.24" duration="86.00" routeLength="2070.54" waitingTime="0.00" waitingCount="0" stopTime="0.00" timeLoss="3.12" rerouteNo="0" devices="tripinfo_8" vType="DEFAULT_VEHTYPE" speedFactor="1.05" vaporized=""/>
    <tripinfo id="36" depart="33.00" departLane="" departPos="0.00" departSpeed="27.64" departDelay="0.00" arrival="90.00" arrivalLane="" arrivalPos="294.40" arrivalSpeed="27.64" duration="57.00" routeLength="1556.98" waitingTime="0.27" waitingCount="0" stopTime="0.00" timeLoss="0.31" rerouteNo="0" devices="tripinfo_36" vType="DEFAULT_VEHTYPE" speedFactor="0.99" vaporized=""/>
    <tripinfo id="45" depart="42.00" departLane="" departPos="0.00" departSpeed="14.42" departDelay="0.00" arrival="90.00" arrivalLane="" arrivalPos="257.55" arrivalSpeed="28.83" duration="48.00" routeLength="1329.61" waitingTime="0.00" waitingCount="0" stopTime="0.00" timeLoss="0.00" rerouteNo="0" devices="tripinfo_45" vType="DEFAULT_VEHTYPE" speedFactor="1.04" vaporized=""/>
    <tripinfo id="11" depart="8.00" departLane="" departPos="0.00" departSpeed="23.80" departDelay="0.00" arrival="92.00" arrivalLane="" arrivalPos="325.99" arrivalSpeed="19.04" duration="84.00" routeLength="1674.93" waitingTime="0.45" waitingCount="0" stopTime="0.00" timeLoss="0.45" rerouteNo="0" devices="tripinfo_11" vType="DEFAULT_VEHTYPE" speedFactor="0.86" vaporized=""/>
    <tripinfo id="16" depart="12.00" departLane="" departPos="0.00" departSpeed="22.02" departDelay="0.00" arrival="92.00" arrivalLane="" arrivalPos="294.40" arrivalSpeed="27.53" duration="80.00" routeLength="1887.77" waitingTime="0.00" waitingCount="0" stopTime="0.00" timeLoss="0.00" rerouteNo="0" devices="tripinfo_16" vType="DEFAULT_VEHTYPE" speedFactor="0.99" vaporized=""/>
    <tripinfo id="10" depart="5.00" departLane="" departPos="0.00" departSpeed="20.84" departDelay="0.00" arrival="94.00" arrivalLane="" arrivalPos="257.55" arrivalSpeed="26.05" duration="89.00" routeLength="1753.33" waitingTime="0.93" waitingCount="0" stopTime="0.00" timeLoss="0.93" rerouteNo="0" devices="tripinfo_10" vType="DEFAULT_VEHTYPE" speedFactor="0.94" vaporized=""/>
    <tripinfo id="60" depart="58.00" departLane="" departPos="0.00" departSpeed="14.22" departDelay="0.00" arrival="94.00" arrivalLane="" arrivalPos="100.00" arrivalSpeed="28.43" duration="36.00" routeLength="958.05" waitingTime="0.00" waitingCount="0" stopTime="0.00" timeLoss="0.00" rerouteNo="0" devices="tripinfo_60" vType="DEFAULT_VEHTYPE" speedFactor="1.02" vaporized=""/>
    <tripinfo id="13" depart="11.00" departLane="" departPos="0.00" departSpeed="22.80" departDelay="0.00" arrival="95.00" arrivalLane="" arrivalPos="100.00" arrivalSpeed="28.43" duration="84.00" routeLength="1786.97" waitingTime="0.06" waitingCount="0" stopTime="0.00" timeLoss="2.29" rerouteNo="0" devices="tripinfo_13" vType="DEFAULT_VEHTYPE" speedFactor="1.03" vaporized=""/>
    <tripinfo id="27" depart="24.00" departLane="" departPos="0.00" departSpeed="12.12" departDelay="0.00" arrival="97.00" arrivalLane="" arrivalPos="806.12" arrivalSpeed="19.39" duration="73.00" routeLength="1363.89" waitingTime="0.00" waitingCount="0" stopTime="0.00" timeLoss="0.57" rerouteNo="0" devices="tripinfo_27" vType="DEFAULT_VEHTYPE" speedFactor="0.87" vaporized=""/>
    <tripinfo id="26" depart="23.00" departLane="" departPos="0.00" departSpeed="22.94" departDelay="0.00" arrival="98.00" arrivalLane="" arrivalPos="143.59" arrivalSpeed="18.35" duration="75.00" routeLength="1459.06" waitingTime="0.00" waitingCount="0" stopTime="0.00" timeLoss="0.00" rerouteNo="0" devices="tripinfo_26" vType="DEFAULT_VEHTYPE" speedFactor="0.83" vaporized=""/>
    <tripinfo id="31" depart="28.00" departLane="" departPos="0.00" departSpeed="25.87" departDelay="0.00" arrival="98.00" arrivalLane="" arrivalPos="325.99" arrivalSpeed="20.69" duration="70.00" routeLength="1146.34" waitingTime="0.00" waitingCount="0" stopTime="0.00" timeLoss="0.00" rerouteNo="0" devices="tripinfo_31" vType="DEFAULT_VEHTYPE" speedFactor="0.93" vaporized=""/>
    <tripinfo id="38" depart="36.00" departLane="" departPos="0.00" departSpeed="21.62" departDelay="0.00" arrival="99.00" arrivalLane="" arrivalPos="143.59" arrivalSpeed="18.88" duration="63.00" routeLength="1330.63" waitingTime="0.00" waitingCount="0" stopTime="0.00" timeLoss="0.97" rerouteNo="0" devices="tripinfo_38" vType="DEFAULT_VEHTYPE" speedFactor="0.97" vaporized=""/>
    <tripinfo id="71" depart="65.00" departLane="" departPos="0.00" departSpeed="28.39" departDelay="0.00" arrival="99.00" arrivalLane="" arrivalPos="100.00" arrivalSpeed="28.39" duration="34.00" routeLength="952.53" waitingTime="0.00" waitingCount="0" stopTime="0.00" timeLoss="0.00" rerouteNo="0" devices="tripinfo_71" vType="DEFAULT_VEHTYPE" speedFactor="1.02" vaporized=""/>
    <tripinfo id="48" depart="43.00" departLane="" departPos="0.00" departSpeed="27.71" departDelay="0.00" arrival="101.00" arrivalLane="" arrivalPos="143.59" arrivalSpeed="22.16" duration="58.00" routeLength="1010.43" waitingTime="0.00" waitingCount="0" stopTime="0.00" timeLoss="0.00" rerouteNo="0" devices="tripinfo_48" vType="DEFAULT_VEHTYPE" speedFactor="1.00" vaporized=""/>
    <tripinfo id="25" depart="23.00" departLane="" departPos="0.00" departSpeed="19.77" departDelay="0.00" arrival="103.00" arrivalLane="" arrivalPos="38.78" arrivalSpeed="12.36" duration="80.00" routeLength="1632.15" waitingTime="0.00" waitingCount="0" stopTime="0.00" timeLoss="0.00" rerouteNo="0" devices="tripinfo_25" vType="DEFAULT_VEHTYPE" speedFactor="0.89" vaporized=""/>
    <tripinfo id="43" depart="40.00" departLane="" departPos="0.00" departSpeed="21.27" departDelay="0.00" arrival="103.00" arrivalLane="" arrivalPos="806.12" arrivalSpeed="21.27" duration="63.00" routeLength="1333.25" waitingTime="0.00" waitingCount="0" stopTime="0.00" timeLoss="0.00" rerouteNo="0" devices="tripinfo_43" vType="DEFAULT_VEHTYPE" speedFactor="0.96" vaporized=""/>
    <tripinfo id="23" depart="20.00" departLane="" departPos="0.00" departSpeed="22.45" departDelay="0.00" arrival="105.00" arrivalLane="" arrivalPos="806.12" arrivalSpeed="21.27" duration="85.00" routeLength="1811.89" waitingTime="1.44" waitingCount="0" stopTime="0.00" timeLoss="3.44" rerouteNo="0" devices="tripinfo_23" vType="DEFAULT_VEHTYPE" speedFactor="1.01" vaporized=""/>
    <tripinfo id="69" depart="63.00" departLane="" departPos="0.00" departSpeed="25.41" departDelay="0.00" arrival="105.00" arrivalLane="" arrivalPos="38.78" arrivalSpeed="12.35" duration="42.00" routeLength="969.47" waitingTime="1.17" waitingCount="0" stopTime="0.00" timeLoss="1.41" rerouteNo="0" devices="tripinfo_69" vType="DEFAULT_VEHTYPE" speedFactor="0.91" vaporized=""/>
    <tripinfo id="80" depart="78.00" departLane="" departPos="0.00" departSpeed="13.99" departDelay="0.00" arrival="106.00" arrivalLane="" arrivalPos="38.78" arrivalSpeed="12.35" duration="28.00" routeLength="594.71" waitingTime="1.20" waitingCount="0" stopTime="0.00" timeLoss="2.58" rerouteNo="0" devices="tripinfo_80" vType="DEFAULT_VEHTYPE" speedFactor="1.01" vaporized=""/>
    <tripinfo id="53" depart="49.00" departLane="" departPos="0.00" departSpeed="32.47" departDelay="0.00" arrival="107.00" arrivalLane="" arrivalPos="143.59" arrivalSpeed="25.97" duration="58.00" routeLength="1010.43" waitingTime="0.13" waitingCount="0" stopTime="0.00" timeLoss="8.26" rerouteNo="0" devices="tripinfo_53" vType="DEFAULT_VEHTYPE" speedFactor="1.17" vaporized=""/>
    <tripinfo id="24" depart="22.00" departLane="" departPos="0.00" departSpeed="21.66" departDelay="0.00" arrival="108.00" arrivalLane="" arrivalPos="806.12" arrivalSpeed="21.66" duration="86.00" routeLength="1811.89" waitingTime="0.27" waitingCount="0" stopTime="0.00" timeLoss="1.37" rerouteNo="0" devices="tripinfo_24" vType="DEFAULT_VEHTYPE" speedFactor="0.97" vaporized=""/>
    <tripinfo id="46" depart="42.00" departLane="" departPos="0.00" departSpeed="28.98" departDelay="0.00" arrival="110.00" arrivalLane="" arrivalPos="325.99" arrivalSpeed="23.18" duration="68.00" routeLength="1674.93" waitingTime="0.00" waitingCount="0" stopTime="0.00" timeLoss="0.00" rerouteNo="0" devices="tripinfo_46" vType="DEFAULT_VEHTYPE" speedFactor="1.04" vaporized=""/>
    <tripinfo id="18" depart="13.00" departLane="" departPos="0.00" departSpeed="19.52" departDelay="0.00" arrival="111.00" arrivalLane="" arrivalPos="71.22" arrivalSpeed="12.20" duration="98.00" routeLength="1703.70" waitingTime="0.00" waitingCount="0" stopTime="0.00" timeLoss="0.00" rerouteNo="0" devices="tripinfo_18" vType="DEFAULT_VEHTYPE" speedFactor="0.88" vaporized=""/>
    <tripinfo id="20" depart="16.00" departLane="" departPos="0.00" departSpeed="26.01" departDelay="0.00" arrival="111.00" arrivalLane="" arrivalPos="806.12" arrivalSpeed="20.80" duration="95.00" routeLength="2070.54" waitingTime="1.47" waitingCount="0" stopTime="0.00" timeLoss="2.53" rerouteNo="0" devices="tripinfo_20" vType="DEFAULT_VEHTYPE" speedFactor="0.94" vaporized=""/>
    <tripinfo id="34" depart="31.00" departLane="" departPos="0.00" departSpeed="22.34" departDelay="0.00" arrival="113.00" arrivalLane="" arrivalPos="294.40" arrivalSpeed="27.92" duration="82.00" routeLength="1580.63" waitingTime="0.00" waitingCount="0" stopTime="0.00" timeLoss="0.00" rerouteNo="0" devices="tripinfo_34" vType="DEFAULT_VEHTYPE" speedFactor="1.01" vaporized=""/>
    <tripinfo id="88" depart="88.00" departLane="" departPos="0.00" departSpeed="13.91" departDelay="0.00" arrival="115.00" arrivalLane="" arrivalPos="71.22" arrivalSpeed="13.91" duration="27.00" routeLength="617.84" waitingTime="0.00" waitingCount="0" stopTime="0.00" timeLoss="0.00" rerouteNo="0" devices="tripinfo_88" vType="DEFAULT_VEHTYPE" speedFactor="1.00" vaporized=""/>
    <tripinfo id="76" depart="70.00" departLane="" departPos="0.00" departSpeed="26.53" departDelay="0.00" arrival="116.00" arrivalLane="" arrivalPos="100.00" arrivalSpeed="26.53" duration="46.00" routeLength="1209.17" waitingTime="0.00" waitingCount="0" stopTime="0.00" timeLoss="0.00" rerouteNo="0" devices="tripinfo_76" vType="DEFAULT_VEHTYPE" speedFactor="0.96" vaporized=""/>
    <tripinfo id="89" depart="91.00" departLane="" departPos="0.00" departSpeed="14.48" departDelay="0.00" arrival="116.00" arrivalLane="" arrivalPos="38.78" arrivalSpeed="14.48" duration="25.00" routeLength="594.71" waitingTime="0.00" waitingCount="0" stopTime="0.00" timeLoss="0.00" rerouteNo="0" devices="tripinfo_89" vType="DEFAULT_VEHTYPE" speedFactor="1.04" vaporized=""/>
    <tripinfo id="51" depart="46.00" departLane="" departPos="0.00" departSpeed="18.90" departDelay="0.00" arrival="117.00" arrivalLane="" arrivalPos="806.12" arrivalSpeed="18.89" duration="71.00" routeLength="1333.25" waitingTime="0.00" waitingCount="0" stopTime="0.00" timeLoss="0.00" rerouteNo="0" devices="tripinfo_51" vType="DEFAULT_VEHTYPE" speedFactor="0.85" vaporized=""/>
    <tripinfo id="37" depart="34.00" departLane="" departPos="0.00" departSpeed="22.66" departDelay="0.00" arrival="120.00" arrivalLane="" arrivalPos="100.00" arrivalSpeed="28.33" duration="86.00" routeLength="1786.97" waitingTime="0.20" waitingCount="0" stopTime="0.00" timeLoss="4.45" rerouteNo="0" devices="tripinfo_37" vType="DEFAULT_VEHTYPE" speedFactor="1.02" vaporized=""/>
    <tripinfo id="52" depart="48.00" departLane="" departPos="0.00" departSpeed="23.75" departDelay="0.00" arrival="121.00" arrivalLane="" arrivalPos="143.59" arrivalSpeed="19.00" duration="73.00" routeLength="1459.06" waitingTime="0.50" waitingCount="0" stopTime="0.00" timeLoss="0.55" rerouteNo="0" devices="tripinfo_52" vType="DEFAULT_VEHTYPE" speedFactor="0.85" vaporized=""/>
    <tripinfo id="41" depart="37.00" departLane="" departPos="0.00" departSpeed="12.51" departDelay="0.00" arrival="122.00" arrivalLane="" arrivalPos="325.99" arrivalSpeed="20.01" duration="85.00" routeLength="1775.73" waitingTime="0.00" waitingCount="0" stopTime="0.00" timeLoss="0.00" rerouteNo="0" devices="tripinfo_41" vType="DEFAULT_VEHTYPE" speedFactor="0.90" vaporized=""/>
    <tripinfo id="63" depart="59.00" departLane="" departPos="0.00" departSpeed="31.09" departDelay="0.00" arrival="122.00" arrivalLane="" arrivalPos="143.59" arrivalSpeed="19.00" duration="63.00" routeLength="1459.06" waitingTime="0.00" waitingCount="0" stopTime="0.00" timeLoss="7.91" rerouteNo="0" devices="tripinfo_63" vType="DEFAULT_VEHTYPE" speedFactor="1.12" vaporized=""/>
    <tripinfo id="78" depart="74.00" departLane="" departPos="0.00" departSpeed="14.34" departDelay="0.00" arrival="123.00" arrivalLane="" arrivalPos="143.59" arrivalSpeed="21.66" duration="49.00" routeLength="1084.30" waitingTime="0.00" waitingCount="0" stopTime="0.00" timeLoss="0.37" rerouteNo="0" devices="tripinfo_78" vType="DEFAULT_VEHTYPE" speedFactor="1.03" vaporized=""/>
    <tripinfo id="47" depart="43.00" departLane="" departPos="0.00" departSpeed="11.95" departDelay="0.00" arrival="124.00" arrivalLane="" arrivalPos="325.99" arrivalSpeed="20.01" duration="81.00" routeLength="1775.73" waitingTime="0.00" waitingCount="0" stopTime="0.00" timeLoss="10.03" rerouteNo="0" devices="tripinfo_47" vType="DEFAULT_VEHTYPE" speedFactor="1.09" vaporized=""/>
    <tripinfo id="49" depart="45.00" departLane="" departPos="0.00" departSpeed="12.51" departDelay="0.00" arrival="125.00" arrivalLane="" arrivalPos="806.12" arrivalSpeed="20.01" duration="80.00" routeLength="1295.54" waitingTime="0.00" waitingCount="0" stopTime="0.00" timeLoss="0.00" rerouteNo="0" devices="tripinfo_49" vType="DEFAULT_VEHTYPE" speedFactor="0.90" vaporized=""/>
    <tripinfo id="54" depart="49.00" departLane="" departPos="0.00" departSpeed="28.24" departDelay="0.00" arrival="126.00" arrivalLane="" arrivalPos="325.99" arrivalSpeed="22.59" duration="77.00" routeLength="1770.21" waitingTime="1.02" waitingCount="0" stopTime="0.00" timeLoss="3.50" rerouteNo="0" devices="tripinfo_54" vType="DEFAULT_VEHTYPE" speedFactor="1.02" vaporized=""/>
    <tripinfo id="56" depart="52.00" departLane="" departPos="0.00" departSpeed="22.29" departDelay="0.00" arrival="126.00" arrivalLane="" arrivalPos="38.78" arrivalSpeed="13.93" duration="74.00" routeLength="1325.01" waitingTime="0.00" waitingCount="0" stopTime="0.00" timeLoss="0.00" rerouteNo="0" devices="tripinfo_56" vType="DEFAULT_VEHTYPE" speedFactor="1.00" vaporized=""/>
    <tripinfo id="65" depart="61.00" departLane="" departPos="0.00" departSpeed="13.71" departDelay="0.00" arrival="126.00" arrivalLane="" arrivalPos="806.12" arrivalSpeed="20.01" duration="65.00" routeLength="1363.89" waitingTime="0.00" waitingCount="0" stopTime="0.00" timeLoss="1.28" rerouteNo="0" devices="tripinfo_65" vType="DEFAULT_VEHTYPE" speedFactor="0.99" vaporized=""/>
    <tripinfo id="72" depart="67.00" departLane="" departPos="0.00" departSpeed="22.73" departDelay="0.00" arrival="128.00" arrivalLane="" arrivalPos="806.12" arrivalSpeed="20.01" duration="61.00" routeLength="1333.25" waitingTime="0.00" waitingCount="0" stopTime="0.00" timeLoss="1.70" rerouteNo="0" devices="tripinfo_72" vType="DEFAULT_VEHTYPE" speedFactor="1.02" vaporized=""/>
    <tripinfo id="68" depart="62.00" departLane="" departPos="0.00" departSpeed="20.15" departDelay="0.00" arrival="129.00" arrivalLane="" arrivalPos="143.59" arrivalSpeed="20.15" duration="67.00" routeLength="1330.63" waitingTime="0.00" waitingCount="0" stopTime="0.00" timeLoss="0.00" rerouteNo="0" devices="tripinfo_68" vType="DEFAULT_VEHTYPE" speedFactor="0.91" vaporized=""/>
    <tripinfo id="92" depart="96.00" departLane="" departPos="0.00" departSpeed="14.12" departDelay="0.00" arrival="129.00" arrivalLane="" arrivalPos="257.55" arrivalSpeed="28.24" duration="33.00" routeLength="854.05" waitingTime="0.00" waitingCount="0" stopTime="0.00" timeLoss="0.00" rerouteNo="0" devices="tripinfo_92" vType="DEFAULT_VEHTYPE" speedFactor="1.02" vaporized=""/>
    <tripinfo id="67" depart="62.00" departLane="" departPos="0.00" departSpeed="12.26" departDelay="0.00" arrival="131.00" arrivalLane="" arrivalPos="143.59" arrivalSpeed="19.60" duration="69.00" routeLength="1015.95" waitingTime="1.44" waitingCount="0" stopTime="0.00" timeLoss="1.44" rerouteNo="0" devices="tripinfo_67" vType="DEFAULT_VEHTYPE" speedFactor="0.88" vaporized=""/>
    <tripinfo id="73" depart="67.00" departLane="" departPos="0.00" departSpeed="18.45" departDelay="0.00" arrival="131.00" arrivalLane="" arrivalPos="38.78" arrivalSpeed="13.51" duration="64.00" routeLength="1418.15" waitingTime="0.00" waitingCount="0" stopTime="0.00" timeLoss="1.14" rerouteNo="0" devices="tripinfo_73" vType="DEFAULT_VEHTYPE" speedFactor="0.97" vaporized=""/>
    <tripinfo id="70" depart="64.00" departLane="" departPos="0.00" departSpeed="28.89" departDelay="0.00" arrival="132.00" arrivalLane="" arrivalPos="143.59" arrivalSpeed="19.61" duration="68.00" routeLength="1459.06" waitingTime="2.88" waitingCount="0" stopTime="0.00" timeLoss="8.92" rerouteNo="0" devices="tripinfo_70" vType="DEFAULT_VEHTYPE" speedFactor="1.04" vaporized=""/>
    <tripinfo id="87" depart="86.00" departLane="" departPos="0.00" departSpeed="27.11" departDelay="0.00" arrival="132.00" arrivalLane="" arrivalPos="257.55" arrivalSpeed="27.11" duration="46.00" routeLength="1228.81" waitingTime="0.00" waitingCount="0" stopTime="0.00" timeLoss="0.00" rerouteNo="0" devices="tripinfo_87" vType="DEFAULT_VEHTYPE" speedFactor="0.98" vaporized=""/>
    <tripinfo id="91" depart="96.00" departLane="" departPos="0.00" departSpeed="14.20" departDelay="0.00" arrival="132.00" arrivalLane="" arrivalPos="100.00" arrivalSpeed="28.39" duration="36.00" routeLength="958.05" waitingTime="0.00" waitingCount="0" stopTime="0.00" timeLoss="0.00" rerouteNo="0" devices="tripinfo_91" vType="DEFAULT_VEHTYPE" speedFactor="1.02" vaporized=""/>
    <tripinfo id="58" depart="53.00" departLane="" departPos="0.00" departSpeed="24.97" departDelay="0.00" arrival="133.00" arrivalLane="" arrivalPos="325.99" arrivalSpeed="19.97" duration="80.00" routeLength="1674.93" waitingTime="0.00" waitingCount="0" stopTime="0.00" timeLoss="0.29" rerouteNo="0" devices="tripinfo_58" vType="DEFAULT_VEHTYPE" speedFactor="0.90" vaporized=""/>