<?xml version="1.0" encoding="UTF-8"?>

<!-- generated on 2023-04-30 00:38:19 by Eclipse SUMO sumo Version 1.16.0
<configuration xmlns:xsi="http://www.w3.org/2001/XMLSchema-instance" xsi:noNamespaceSchemaLocation="http://sumo.dlr.de/xsd/sumoConfiguration.xsd">

    <input>
        <net-file value="C:\Users\Local_Man\Desktop\Stolen%20Music\school%20stuff%20for%20college\Semester%2015%20(UH%20Graduate%20School)\COSC%206364%20Nikolaos\SUMO_Project\COSC6364_Project\configurations\maps\Braess_Homebrew_fixed1.net.xml"/>
        <route-files value="./configurations/Rounds/Braess_Homebrew_fixed1.net.xml-test-4/Mesoscopic_DUE/027/Trips_File_027.rou.xml"/>
    </input>

    <output>
        <summary-output value="./configurations/Rounds/Braess_Homebrew_fixed1.net.xml-test-4/Mesoscopic_DUE/027/summary.xml"/>
        <tripinfo-output value="./configurations/Rounds/Braess_Homebrew_fixed1.net.xml-test-4/Mesoscopic_DUE/027/trips.trips.xml"/>
        <statistic-output value="./configurations/Rounds/Braess_Homebrew_fixed1.net.xml-test-4/Mesoscopic_DUE/027/stats_output.xml"/>
    </output>

    <time>
        <begin value="0"/>
    </time>

    <report>
        <log value="./configurations/Rounds/Braess_Homebrew_fixed1.net.xml-test-4/Mesoscopic_DUE/027/log.sumo.log"/>
        <no-step-log value="true"/>
    </report>

    <gui_only>
        <quit-on-end value="true"/>
    </gui_only>

</configuration>
-->

<tripinfos xmlns:xsi="http://www.w3.org/2001/XMLSchema-instance" xsi:noNamespaceSchemaLocation="http://sumo.dlr.de/xsd/tripinfo_file.xsd">
    <tripinfo id="2" depart="4.00" departLane="E0_0" departPos="5.10" departSpeed="0.00" departDelay="0.00" arrival="102.00" arrivalLane="E3_0" arrivalPos="90.46" arrivalSpeed="24.45" duration="98.00" routeLength="1317.38" waitingTime="0.00" waitingCount="0" stopTime="0.00" timeLoss="17.21" rerouteNo="0" devices="tripinfo_2" vType="DEFAULT_VEHTYPE" speedFactor="1.06" vaporized=""/>
    <tripinfo id="4" depart="10.00" departLane="E0_0" departPos="5.10" departSpeed="0.00" departDelay="0.00" arrival="107.00" arrivalLane="E3_0" arrivalPos="90.46" arrivalSpeed="30.06" duration="97.00" routeLength="1314.99" waitingTime="0.00" waitingCount="0" stopTime="0.00" timeLoss="15.64" rerouteNo="0" devices="tripinfo_4" vType="DEFAULT_VEHTYPE" speedFactor="1.01" vaporized=""/>
    <tripinfo id="5" depart="13.00" departLane="E0_0" departPos="5.10" departSpeed="0.00" departDelay="3.00" arrival="108.00" arrivalLane="E3_0" arrivalPos="90.46" arrivalSpeed="31.23" duration="95.00" routeLength="1314.99" waitingTime="0.00" waitingCount="0" stopTime="0.00" timeLoss="19.46" rerouteNo="0" devices="tripinfo_5" vType="DEFAULT_VEHTYPE" speedFactor="1.08" vaporized=""/>
    <tripinfo id="3" depart="7.00" departLane="E0_0" departPos="5.10" departSpeed="0.00" departDelay="3.00" arrival="113.00" arrivalLane="E3_0" arrivalPos="90.46" arrivalSpeed="25.32" duration="106.00" routeLength="1317.38" waitingTime="0.00" waitingCount="0" stopTime="0.00" timeLoss="14.61" rerouteNo="0" devices="tripinfo_3" vType="DEFAULT_VEHTYPE" speedFactor="0.94" vaporized=""/>
    <tripinfo id="6" depart="16.00" departLane="E0_0" departPos="5.10" departSpeed="0.00" departDelay="6.00" arrival="121.00" arrivalLane="E3_0" arrivalPos="90.46" arrivalSpeed="25.24" duration="105.00" routeLength="1317.38" waitingTime="0.00" waitingCount="0" stopTime="0.00" timeLoss="21.44" rerouteNo="0" devices="tripinfo_6" vType="DEFAULT_VEHTYPE" speedFactor="1.03" vaporized=""/>
    <tripinfo id="8" depart="22.00" departLane="E0_0" departPos="5.10" departSpeed="0.00" departDelay="11.00" arrival="125.00" arrivalLane="E3_0" arrivalPos="90.46" arrivalSpeed="25.43" duration="103.00" routeLength="1317.38" waitingTime="0.00" waitingCount="0" stopTime="0.00" timeLoss="20.73" rerouteNo="0" devices="tripinfo_8" vType="DEFAULT_VEHTYPE" speedFactor="1.05" vaporized=""/>
    <tripinfo id="7" depart="19.00" departLane="E0_0" departPos="5.10" departSpeed="0.00" departDelay="8.00" arrival="133.00" arrivalLane="E3_0" arrivalPos="90.46" arrivalSpeed="24.85" duration="114.00" routeLength="1314.99" waitingTime="0.00" waitingCount="0" stopTime="0.00" timeLoss="14.46" rerouteNo="0" devices="tripinfo_7" vType="DEFAULT_VEHTYPE" speedFactor="0.83" vaporized=""/>
    <tripinfo id="9" depart="25.00" departLane="E0_0" departPos="5.10" departSpeed="0.00" departDelay="11.00" arrival="134.00" arrivalLane="E3_0" arrivalPos="90.46" arrivalSpeed="25.59" duration="109.00" routeLength="1314.99" waitingTime="0.00" waitingCount="0" stopTime="0.00" timeLoss="16.52" rerouteNo="0" devices="tripinfo_9" vType="DEFAULT_VEHTYPE" speedFactor="0.89" vaporized=""/>
    <tripinfo id="10" depart="28.00" departLane="E0_0" departPos="5.10" departSpeed="0.00" departDelay="11.00" arrival="135.00" arrivalLane="E3_0" arrivalPos="90.46" arrivalSpeed="26.96" duration="107.00" routeLength="1314.99" waitingTime="0.00" waitingCount="0" stopTime="0.00" timeLoss="19.72" rerouteNo="0" devices="tripinfo_10" vType="DEFAULT_VEHTYPE" speedFactor="0.94" vaporized=""/>
    <tripinfo id="12" depart="34.00" departLane="E0_0" departPos="5.10" departSpeed="0.00" departDelay="16.00" arrival="137.00" arrivalLane="E3_0" arrivalPos="90.46" arrivalSpeed="29.43" duration="103.00" routeLength="1314.99" waitingTime="0.00" waitingCount="0" stopTime="0.00" timeLoss="27.36" rerouteNo="0" devices="tripinfo_12" vType="DEFAULT_VEHTYPE" speedFactor="1.09" vaporized=""/>
    <tripinfo id="14" depart="40.00" departLane="E0_0" departPos="5.10" departSpeed="0.00" departDelay="21.00" arrival="138.00" arrivalLane="E3_0" arrivalPos="90.46" arrivalSpeed="29.84" duration="98.00" routeLength="1314.99" waitingTime="0.00" waitingCount="0" stopTime="0.00" timeLoss="19.68" rerouteNo="0" devices="tripinfo_14" vType="DEFAULT_VEHTYPE" speedFactor="1.05" vaporized=""/>
    <tripinfo id="15" depart="43.00" departLane="E0_0" departPos="5.10" departSpeed="0.00" departDelay="23.00" arrival="140.00" arrivalLane="E3_0" arrivalPos="90.46" arrivalSpeed="31.12" duration="97.00" routeLength="1314.99" waitingTime="0.00" waitingCount="0" stopTime="0.00" timeLoss="23.30" rerouteNo="0" devices="tripinfo_15" vType="DEFAULT_VEHTYPE" speedFactor="1.12" vaporized=""/>
    <tripinfo id="16" depart="46.00" departLane="E0_0" departPos="5.10" departSpeed="0.00" departDelay="26.00" arrival="143.00" arrivalLane="E3_0" arrivalPos="90.46" arrivalSpeed="29.69" duration="97.00" routeLength="1314.99" waitingTime="0.00" waitingCount="0" stopTime="0.00" timeLoss="13.64" rerouteNo="0" devices="tripinfo_16" vType="DEFAULT_VEHTYPE" speedFactor="0.99" vaporized=""/>
    <tripinfo id="17" depart="49.00" departLane="E0_0" departPos="5.10" departSpeed="0.00" departDelay="27.00" arrival="151.00" arrivalLane="E3_0" arrivalPos="90.46" arrivalSpeed="27.02" duration="102.00" routeLength="1314.99" waitingTime="0.00" waitingCount="0" stopTime="0.00" timeLoss="13.06" rerouteNo="0" devices="tripinfo_17" vType="DEFAULT_VEHTYPE" speedFactor="0.93" vaporized=""/>
    <tripinfo id="18" depart="52.00" departLane="E0_0" departPos="5.10" departSpeed="0.00" departDelay="29.00" arrival="159.00" arrivalLane="E3_0" arrivalPos="90.46" arrivalSpeed="26.06" duration="107.00" routeLength="1314.99" waitingTime="0.00" waitingCount="0" stopTime="0.00" timeLoss="13.86" rerouteNo="0" devices="tripinfo_18" vType="DEFAULT_VEHTYPE" speedFactor="0.88" vaporized=""/>
    <tripinfo id="20" depart="58.00" departLane="E0_0" departPos="5.10" departSpeed="0.00" departDelay="34.00" arrival="161.00" arrivalLane="E3_0" arrivalPos="90.46" arrivalSpeed="26.80" duration="103.00" routeLength="1314.99" waitingTime="0.00" waitingCount="0" stopTime="0.00" timeLoss="15.07" rerouteNo="0" devices="tripinfo_20" vType="DEFAULT_VEHTYPE" speedFactor="0.94" vaporized=""/>
    <tripinfo id="22" depart="64.00" departLane="E0_0" departPos="5.10" departSpeed="0.00" departDelay="38.00" arrival="162.00" arrivalLane="E3_0" arrivalPos="90.46" arrivalSpeed="28.91" duration="98.00" routeLength="1314.99" waitingTime="0.00" waitingCount="0" stopTime="0.00" timeLoss="17.42" rerouteNo="0" devices="tripinfo_22" vType="DEFAULT_VEHTYPE" speedFactor="1.02" vaporized=""/>
    <tripinfo id="23" depart="67.00" departLane="E0_0" departPos="5.10" departSpeed="0.00" departDelay="38.00" arrival="164.00" arrivalLane="E3_0" arrivalPos="90.46" arrivalSpeed="29.53" duration="97.00" routeLength="1314.99" waitingTime="0.00" waitingCount="0" stopTime="0.00" timeLoss="15.08" rerouteNo="0" devices="tripinfo_23" vType="DEFAULT_VEHTYPE" speedFactor="1.01" vaporized=""/>
    <tripinfo id="24" depart="70.00" departLane="E0_0" departPos="5.10" departSpeed="0.00" departDelay="41.00" arrival="169.00" arrivalLane="E3_0" arrivalPos="90.46" arrivalSpeed="28.26" duration="99.00" routeLength="1314.99" waitingTime="0.00" waitingCount="0" stopTime="0.00" timeLoss="15.21" rerouteNo="0" devices="tripinfo_24" vType="DEFAULT_VEHTYPE" speedFactor="0.97" vaporized=""/>
    <tripinfo id="11" depart="31.00" departLane="E0_0" departPos="5.10" departSpeed="0.00" departDelay="13.00" arrival="179.00" arrivalLane="E3_0" arrivalPos="90.46" arrivalSpeed="25.57" duration="148.00" routeLength="1317.38" waitingTime="26.00" waitingCount="1" stopTime="0.00" timeLoss="47.33" rerouteNo="0" devices="tripinfo_11" vType="DEFAULT_VEHTYPE" speedFactor="0.86" vaporized=""/>
    <tripinfo id="29" depart="85.00" departLane="E0_0" departPos="5.10" departSpeed="0.00" departDelay="52.00" arrival="185.00" arrivalLane="E3_0" arrivalPos="90.46" arrivalSpeed="27.44" duration="100.00" routeLength="1314.99" waitingTime="0.00" waitingCount="0" stopTime="0.00" timeLoss="13.58" rerouteNo="0" devices="tripinfo_29" vType="DEFAULT_VEHTYPE" speedFactor="0.95" vaporized=""/>
    <tripinfo id="30" depart="88.00" departLane="E0_0" departPos="5.10" departSpeed="0.00" departDelay="54.00" arrival="186.00" arrivalLane="E3_0" arrivalPos="90.46" arrivalSpeed="29.83" duration="98.00" routeLength="1314.99" waitingTime="0.00" waitingCount="0" stopTime="0.00" timeLoss="25.76" rerouteNo="0" devices="tripinfo_30" vType="DEFAULT_VEHTYPE" speedFactor="1.13" vaporized=""/>
    <tripinfo id="31" depart="91.00" departLane="E0_0" departPos="5.10" departSpeed="0.00" departDelay="57.00" arrival="193.00" arrivalLane="E3_0" arrivalPos="90.46" arrivalSpeed="27.24" duration="102.00" routeLength="1314.99" waitingTime="0.00" waitingCount="0" stopTime="0.00" timeLoss="13.26" rerouteNo="0" devices="tripinfo_31" vType="DEFAULT_VEHTYPE" speedFactor="0.93" vaporized=""/>
    <tripinfo id="32" depart="94.00" departLane="E0_0" departPos="5.10" departSpeed="0.00" departDelay="59.00" arrival="194.00" arrivalLane="E3_0" arrivalPos="90.46" arrivalSpeed="28.56" duration="100.00" routeLength="1314.99" waitingTime="0.00" waitingCount="0" stopTime="0.00" timeLoss="30.34" rerouteNo="0" devices="tripinfo_32" vType="DEFAULT_VEHTYPE" speedFactor="1.18" vaporized=""/>
    <tripinfo id="33" depart="97.00" departLane="E0_0" departPos="5.10" departSpeed="0.00" departDelay="62.00" arrival="195.00" arrivalLane="E3_0" arrivalPos="90.46" arrivalSpeed="28.98" duration="98.00" routeLength="1314.99" waitingTime="0.00" waitingCount="0" stopTime="0.00" timeLoss="27.02" rerouteNo="0" devices="tripinfo_33" vType="DEFAULT_VEHTYPE" speedFactor="1.15" vaporized=""/>
    <tripinfo id="35" depart="103.00" departLane="E0_0" departPos="5.10" departSpeed="0.00" departDelay="64.00" arrival="197.00" arrivalLane="E3_0" arrivalPos="90.46" arrivalSpeed="29.91" duration="94.00" routeLength="1314.99" waitingTime="0.00" waitingCount="0" stopTime="0.00" timeLoss="23.67" rerouteNo="0" devices="tripinfo_35" vType="DEFAULT_VEHTYPE" speedFactor="1.17" vaporized=""/>
    <tripinfo id="37" depart="109.00" departLane="E0_0" departPos="5.10" departSpeed="0.00" departDelay="68.00" arrival="205.00" arrivalLane="E3_0" arrivalPos="90.46" arrivalSpeed="29.74" duration="96.00" routeLength="1314.99" waitingTime="0.00" waitingCount="0" stopTime="0.00" timeLoss="14.73" rerouteNo="0" devices="tripinfo_37" vType="DEFAULT_VEHTYPE" speedFactor="1.02" vaporized=""/>
    <tripinfo id="39" depart="115.00" departLane="E0_0" departPos="5.10" departSpeed="0.00" departDelay="69.00" arrival="206.00" arrivalLane="E3_0" arrivalPos="90.46" arrivalSpeed="32.33" duration="91.00" routeLength="1314.99" waitingTime="0.00" waitingCount="0" stopTime="0.00" timeLoss="21.10" rerouteNo="0" devices="tripinfo_39" vType="DEFAULT_VEHTYPE" speedFactor="1.18" vaporized=""/>
    <tripinfo id="40" depart="118.00" departLane="E0_0" departPos="5.10" departSpeed="0.00" departDelay="67.00" arrival="208.00" arrivalLane="E3_0" arrivalPos="90.46" arrivalSpeed="32.17" duration="90.00" routeLength="1314.99" waitingTime="0.00" waitingCount="0" stopTime="0.00" timeLoss="15.09" rerouteNo="0" devices="tripinfo_40" vType="DEFAULT_VEHTYPE" speedFactor="1.10" vaporized=""/>
    <tripinfo id="13" depart="37.00" departLane="E0_0" departPos="5.10" departSpeed="0.00" departDelay="18.00" arrival="217.00" arrivalLane="E3_0" arrivalPos="90.46" arrivalSpeed="24.10" duration="180.00" routeLength="1317.38" waitingTime="60.00" waitingCount="2" stopTime="0.00" timeLoss="96.70" rerouteNo="0" devices="tripinfo_13" vType="DEFAULT_VEHTYPE" speedFactor="1.03" vaporized=""/>
    <tripinfo id="19" depart="55.00" departLane="E0_0" departPos="5.10" departSpeed="0.00" departDelay="31.00" arrival="219.00" arrivalLane="E3_0" arrivalPos="90.46" arrivalSpeed="26.25" duration="164.00" routeLength="1317.38" waitingTime="48.00" waitingCount="2" stopTime="0.00" timeLoss="72.90" rerouteNo="0" devices="tripinfo_19" vType="DEFAULT_VEHTYPE" speedFactor="0.94" vaporized=""/>
    <tripinfo id="41" depart="121.00" departLane="E0_0" departPos="5.10" departSpeed="0.00" departDelay="69.00" arrival="226.00" arrivalLane="E3_0" arrivalPos="90.46" arrivalSpeed="26.95" duration="105.00" routeLength="1314.99" waitingTime="0.00" waitingCount="0" stopTime="0.00" timeLoss="13.68" rerouteNo="0" devices="tripinfo_41" vType="DEFAULT_VEHTYPE" speedFactor="0.90" vaporized=""/>
    <tripinfo id="42" depart="124.00" departLane="E0_0" departPos="5.10" departSpeed="0.00" departDelay="71.00" arrival="228.00" arrivalLane="E3_0" arrivalPos="90.46" arrivalSpeed="30.45" duration="104.00" routeLength="1314.99" waitingTime="0.00" waitingCount="0" stopTime="0.00" timeLoss="23.64" rerouteNo="0" devices="tripinfo_42" vType="DEFAULT_VEHTYPE" speedFactor="1.03" vaporized=""/>
    <tripinfo id="44" depart="130.00" departLane="E0_0" departPos="5.10" departSpeed="0.00" departDelay="75.00" arrival="229.00" arrivalLane="E3_0" arrivalPos="90.46" arrivalSpeed="29.51" duration="99.00" routeLength="1314.99" waitingTime="0.00" waitingCount="0" stopTime="0.00" timeLoss="23.50" rerouteNo="0" devices="tripinfo_44" vType="DEFAULT_VEHTYPE" speedFactor="1.09" vaporized=""/>
    <tripinfo id="45" depart="133.00" departLane="E0_0" departPos="5.10" departSpeed="0.00" departDelay="77.00" arrival="230.00" arrivalLane="E3_0" arrivalPos="90.46" arrivalSpeed="28.73" duration="97.00" routeLength="1314.99" waitingTime="0.00" waitingCount="0" stopTime="0.00" timeLoss="18.00" rerouteNo="0" devices="tripinfo_45" vType="DEFAULT_VEHTYPE" speedFactor="1.04" vaporized=""/>
    <tripinfo id="46" depart="137.00" departLane="E0_0" departPos="5.10" departSpeed="0.00" departDelay="81.00" arrival="232.00" arrivalLane="E3_0" arrivalPos="90.46" arrivalSpeed="30.62" duration="95.00" routeLength="1314.99" waitingTime="0.00" waitingCount="0" stopTime="0.00" timeLoss="15.84" rerouteNo="0" devices="tripinfo_46" vType="DEFAULT_VEHTYPE" speedFactor="1.04" vaporized=""/>
    <tripinfo id="47" depart="140.00" departLane="E0_0" departPos="5.10" departSpeed="0.00" departDelay="81.00" arrival="233.00" arrivalLane="E3_0" arrivalPos="90.46" arrivalSpeed="30.65" duration="93.00" routeLength="1314.99" waitingTime="0.00" waitingCount="0" stopTime="0.00" timeLoss="17.80" rerouteNo="0" devices="tripinfo_47" vType="DEFAULT_VEHTYPE" speedFactor="1.09" vaporized=""/>
    <tripinfo id="48" depart="143.00" departLane="E0_0" departPos="5.10" departSpeed="0.00" departDelay="82.00" arrival="241.00" arrivalLane="E3_0" arrivalPos="90.46" arrivalSpeed="29.82" duration="98.00" routeLength="1314.99" waitingTime="0.00" waitingCount="0" stopTime="0.00" timeLoss="15.54" rerouteNo="0" devices="tripinfo_48" vType="DEFAULT_VEHTYPE" speedFactor="1.00" vaporized=""/>
    <tripinfo id="21" depart="61.00" departLane="E0_0" departPos="5.10" departSpeed="0.00" departDelay="36.00" arrival="251.00" arrivalLane="E3_0" arrivalPos="90.46" arrivalSpeed="24.71" duration="190.00" routeLength="1317.38" waitingTime="71.00" waitingCount="3" stopTime="0.00" timeLoss="115.86" rerouteNo="0" devices="tripinfo_21" vType="DEFAULT_VEHTYPE" speedFactor="1.16" vaporized=""/>
    <tripinfo id="50" depart="149.00" departLane="E0_0" departPos="5.10" departSpeed="0.00" departDelay="85.00" arrival="258.00" arrivalLane="E3_0" arrivalPos="90.46" arrivalSpeed="25.75" duration="109.00" routeLength="1314.99" waitingTime="0.00" waitingCount="0" stopTime="0.00" timeLoss="15.52" rerouteNo="0" devices="tripinfo_50" vType="DEFAULT_VEHTYPE" speedFactor="0.88" vaporized=""/>
    <tripinfo id="57" depart="170.00" departLane="E0_0" departPos="5.10" departSpeed="0.00" departDelay="94.00" arrival="268.00" arrivalLane="E3_0" arrivalPos="90.46" arrivalSpeed="29.74" duration="98.00" routeLength="1314.99" waitingTime="0.00" waitingCount="0" stopTime="0.00" timeLoss="14.74" rerouteNo="0" devices="tripinfo_57" vType="DEFAULT_VEHTYPE" speedFactor="1.00" vaporized=""/>
    <tripinfo id="58" depart="173.00" departLane="E0_0" departPos="5.10" departSpeed="0.00" departDelay="96.00" arrival="278.00" arrivalLane="E3_0" arrivalPos="90.46" arrivalSpeed="26.19" duration="105.00" routeLength="1314.99" waitingTime="0.00" waitingCount="0" stopTime="0.00" timeLoss="13.44" rerouteNo="0" devices="tripinfo_58" vType="DEFAULT_VEHTYPE" speedFactor="0.90" vaporized=""/>
    <tripinfo id="60" depart="179.00" departLane="E0_0" departPos="5.10" departSpeed="0.00" departDelay="101.00" arrival="279.00" arrivalLane="E3_0" arrivalPos="90.46" arrivalSpeed="28.78" duration="100.00" routeLength="1314.99" waitingTime="0.00" waitingCount="0" stopTime="0.00" timeLoss="20.01" rerouteNo="0" devices="tripinfo_60" vType="DEFAULT_VEHTYPE" speedFactor="1.02" vaporized=""/>
    <tripinfo id="62" depart="185.00" departLane="E0_0" departPos="5.10" departSpeed="0.00" departDelay="105.00" arrival="281.00" arrivalLane="E3_0" arrivalPos="90.46" arrivalSpeed="31.55" duration="96.00" routeLength="1314.99" waitingTime="0.00" waitingCount="0" stopTime="0.00" timeLoss="19.67" rerouteNo="0" devices="tripinfo_62" vType="DEFAULT_VEHTYPE" speedFactor="1.08" vaporized=""/>
    <tripinfo id="64" depart="191.00" departLane="E0_0" departPos="5.10" departSpeed="0.00" departDelay="108.00" arrival="287.00" arrivalLane="E3_0" arrivalPos="90.46" arrivalSpeed="29.89" duration="96.00" routeLength="1314.99" waitingTime="0.00" waitingCount="0" stopTime="0.00" timeLoss="15.23" rerouteNo="0" devices="tripinfo_64" vType="DEFAULT_VEHTYPE" speedFactor="1.02" vaporized=""/>
    <tripinfo id="65" depart="194.00" departLane="E0_0" departPos="5.10" departSpeed="0.00" departDelay="111.00" arrival="292.00" arrivalLane="E3_0" arrivalPos="90.46" arrivalSpeed="28.38" duration="98.00" routeLength="1314.99" waitingTime="0.00" waitingCount="0" stopTime="0.00" timeLoss="14.44" rerouteNo="0" devices="tripinfo_65" vType="DEFAULT_VEHTYPE" speedFactor="0.99" vaporized=""/>
    <tripinfo id="66" depart="197.00" departLane="E0_0" departPos="5.10" departSpeed="0.00" departDelay="111.00" arrival="300.00" arrivalLane="E3_0" arrivalPos="90.46" arrivalSpeed="26.91" duration="103.00" routeLength="1314.99" waitingTime="0.00" waitingCount="0" stopTime="0.00" timeLoss="15.18" rerouteNo="0" devices="tripinfo_66" vType="DEFAULT_VEHTYPE" speedFactor="0.94" vaporized=""/>
    <tripinfo id="67" depart="200.00" departLane="E0_0" departPos="5.10" departSpeed="0.00" departDelay="114.00" arrival="309.00" arrivalLane="E3_0" arrivalPos="90.46" arrivalSpeed="25.59" duration="109.00" routeLength="1314.99" waitingTime="0.00" waitingCount="0" stopTime="0.00" timeLoss="15.53" rerouteNo="0" devices="tripinfo_67" vType="DEFAULT_VEHTYPE" speedFactor="0.88" vaporized=""/>
    <tripinfo id="69" depart="207.00" departLane="E0_0" departPos="5.10" departSpeed="0.00" departDelay="119.00" arrival="313.00" arrivalLane="E3_0" arrivalPos="90.46" arrivalSpeed="26.83" duration="106.00" routeLength="1314.99" waitingTime="0.00" waitingCount="0" stopTime="0.00" timeLoss="15.52" rerouteNo="0" devices="tripinfo_69" vType="DEFAULT_VEHTYPE" speedFactor="0.91" vaporized=""/>
    <tripinfo id="70" depart="210.00" departLane="E0_0" departPos="5.10" departSpeed="0.00" departDelay="122.00" arrival="314.00" arrivalLane="E3_0" arrivalPos="90.46" arrivalSpeed="29.37" duration="104.00" routeLength="1314.99" waitingTime="0.00" waitingCount="0" stopTime="0.00" timeLoss="24.82" rerouteNo="0" devices="tripinfo_70" vType="DEFAULT_VEHTYPE" speedFactor="1.04" vaporized=""/>
    <tripinfo id="72" depart="216.00" departLane="E0_0" departPos="5.10" departSpeed="0.00" departDelay="127.00" arrival="316.00" arrivalLane="E3_0" arrivalPos="90.46" arrivalSpeed="30.10" duration="100.00" routeLength="1314.99" waitingTime="0.00" waitingCount="0" stopTime="0.00" timeLoss="19.08" rerouteNo="0" devices="tripinfo_72" vType="DEFAULT_VEHTYPE" speedFactor="1.02" vaporized=""/>
    <tripinfo id="73" depart="219.00" departLane="E0_0" departPos="5.10" departSpeed="0.00" departDelay="130.00" arrival="319.00" arrivalLane="E3_0" arrivalPos="90.46" arrivalSpeed="28.15" duration="100.00" routeLength="1314.99" waitingTime="0.00" waitingCount="0" stopTime="0.00" timeLoss="14.68" rerouteNo="0" devices="tripinfo_73" vType="DEFAULT_VEHTYPE" speedFactor="0.97" vaporized=""/>
    <tripinfo id="74" depart="222.00" departLane="E0_0" departPos="5.10" departSpeed="0.00" departDelay="131.00" arrival="324.00" arrivalLane="E3_0" arrivalPos="90.46" arrivalSpeed="27.47" duration="102.00" routeLength="1314.99" waitingTime="0.00" waitingCount="0" stopTime="0.00" timeLoss="14.45" rerouteNo="0" devices="tripinfo_74" vType="DEFAULT_VEHTYPE" speedFactor="0.94" vaporized=""/>
    <tripinfo id="75" depart="225.00" departLane="E0_0" departPos="5.10" departSpeed="0.00" departDelay="134.00" arrival="325.00" arrivalLane="E3_0" arrivalPos="90.46" arrivalSpeed="29.50" duration="100.00" routeLength="1314.99" waitingTime="0.00" waitingCount="0" stopTime="0.00" timeLoss="22.33" rerouteNo="0" devices="tripinfo_75" vType="DEFAULT_VEHTYPE" speedFactor="1.06" vaporized=""/>
    <tripinfo id="76" depart="228.00" departLane="E0_0" departPos="5.10" departSpeed="0.00" departDelay="137.00" arrival="330.00" arrivalLane="E3_0" arrivalPos="90.46" arrivalSpeed="28.65" duration="102.00" routeLength="1314.99" waitingTime="0.00" waitingCount="0" stopTime="0.00" timeLoss="15.59" rerouteNo="0" devices="tripinfo_76" vType="DEFAULT_VEHTYPE" speedFactor="0.96" vaporized=""/>
    <tripinfo id="77" depart="231.00" departLane="E0_0" departPos="5.10" departSpeed="0.00" departDelay="140.00" arrival="332.00" arrivalLane="E3_0" arrivalPos="90.46" arrivalSpeed="28.26" duration="101.00" routeLength="1314.99" waitingTime="0.00" waitingCount="0" stopTime="0.00" timeLoss="17.04" rerouteNo="0" devices="tripinfo_77" vType="DEFAULT_VEHTYPE" speedFactor="0.98" vaporized=""/>
    <tripinfo id="78" depart="234.00" departLane="E0_0" departPos="5.10" departSpeed="0.00" departDelay="142.00" arrival="333.00" arrivalLane="E3_0" arrivalPos="90.46" arrivalSpeed="30.45" duration="99.00" routeLength="1314.99" waitingTime="0.00" waitingCount="0" stopTime="0.00" timeLoss="19.33" rerouteNo="0" devices="tripinfo_78" vType="DEFAULT_VEHTYPE" speedFactor="1.03" vaporized=""/>
    <tripinfo id="79" depart="237.00" departLane="E0_0" departPos="5.10" departSpeed="0.00" departDelay="143.00" arrival="336.00" arrivalLane="E3_0" arrivalPos="90.46" arrivalSpeed="29.09" duration="99.00" routeLength="1314.99" waitingTime="0.00" waitingCount="0" stopTime="0.00" timeLoss="15.48" rerouteNo="0" devices="tripinfo_79" vType="DEFAULT_VEHTYPE" speedFactor="0.98" vaporized=""/>
    <tripinfo id="81" depart="243.00" departLane="E0_0" departPos="5.10" departSpeed="0.00" departDelay="146.00" arrival="338.00" arrivalLane="E3_0" arrivalPos="90.46" arrivalSpeed="31.74" duration="95.00" routeLength="1314.99" waitingTime="0.00" waitingCount="0" stopTime="0.00" timeLoss="18.75" rerouteNo="0" devices="tripinfo_81" vType="DEFAULT_VEHTYPE" speedFactor="1.09" vaporized=""/>
    <tripinfo id="82" depart="246.00" departLane="E0_0" departPos="5.10" departSpeed="0.00" departDelay="147.00" arrival="340.00" arrivalLane="E3_0" arrivalPos="90.46" arrivalSpeed="30.16" duration="94.00" routeLength="1314.99" waitingTime="0.00" waitingCount="0" stopTime="0.00" timeLoss="14.81" rerouteNo="0" devices="tripinfo_82" vType="DEFAULT_VEHTYPE" speedFactor="1.03" vaporized=""/>
    <tripinfo id="83" depart="249.00" departLane="E0_0" departPos="5.10" departSpeed="0.00" departDelay="150.00" arrival="346.00" arrivalLane="E3_0" arrivalPos="90.46" arrivalSpeed="29.77" duration="97.00" routeLength="1314.99" waitingTime="0.00" waitingCount="0" stopTime="0.00" timeLoss="14.30" rerouteNo="0" devices="tripinfo_83" vType="DEFAULT_VEHTYPE" speedFactor="1.00" vaporized=""/>
    <tripinfo id="25" depart="73.00" departLane="E0_0" departPos="5.10" departSpeed="0.00" departDelay="43.00" arrival="356.00" arrivalLane="E3_0" arrivalPos="90.46" arrivalSpeed="25.08" duration="283.00" routeLength="1317.38" waitingTime="153.00" waitingCount="3" stopTime="0.00" timeLoss="186.21" rerouteNo="0" devices="tripinfo_25" vType="DEFAULT_VEHTYPE" speedFactor="0.89" vaporized=""/>
    <tripinfo id="85" depart="255.00" departLane="E0_0" departPos="5.10" departSpeed="0.00" departDelay="151.00" arrival="357.00" arrivalLane="E3_0" arrivalPos="90.46" arrivalSpeed="23.23" duration="102.00" routeLength="1314.99" waitingTime="0.00" waitingCount="0" stopTime="0.00" timeLoss="17.09" rerouteNo="0" devices="tripinfo_85" vType="DEFAULT_VEHTYPE" speedFactor="0.97" vaporized=""/>
    <tripinfo id="87" depart="261.00" departLane="E0_0" departPos="5.10" departSpeed="0.00" departDelay="157.00" arrival="360.00" arrivalLane="E3_0" arrivalPos="90.46" arrivalSpeed="29.07" duration="99.00" routeLength="1314.99" waitingTime="0.00" waitingCount="0" stopTime="0.00" timeLoss="15.30" rerouteNo="0" devices="tripinfo_87" vType="DEFAULT_VEHTYPE" speedFactor="0.98" vaporized=""/>
    <tripinfo id="88" depart="264.00" departLane="E0_0" departPos="5.10" departSpeed="0.00" departDelay="158.00" arrival="362.00" arrivalLane="E3_0" arrivalPos="90.46" arrivalSpeed="29.62" duration="98.00" routeLength="1314.99" waitingTime="0.00" waitingCount="0" stopTime="0.00" timeLoss="15.63" rerouteNo="0" devices="tripinfo_88" vType="DEFAULT_VEHTYPE" speedFactor="1.00" vaporized=""/>
    <tripinfo id="91" depart="273.00" departLane="E0_0" departPos="5.10" departSpeed="0.00" departDelay="166.00" arrival="367.00" arrivalLane="E3_0" arrivalPos="90.46" arrivalSpeed="29.86" duration="94.00" routeLength="1314.99" waitingTime="0.00" waitingCount="0" stopTime="0.00" timeLoss="13.75" rerouteNo="0" devices="tripinfo_91" vType="DEFAULT_VEHTYPE" speedFactor="1.02" vaporized=""/>
    <tripinfo id="92" depart="276.00" departLane="E0_0" departPos="5.10" departSpeed="0.00" departDelay="168.00" arrival="372.00" arrivalLane="E3_0" arrivalPos="90.46" arrivalSpeed="29.26" duration="96.00" routeLength="1314.99" waitingTime="0.00" waitingCount="0" stopTime="0.00" timeLoss="14.88" rerouteNo="0" devices="tripinfo_92" vType="DEFAULT_VEHTYPE" speedFactor="1.02" vaporized=""/>
    <tripinfo id="26" depart="76.00" departLane="E0_0" departPos="5.10" departSpeed="0.00" departDelay="44.00" arrival="382.00" arrivalLane="E3_0" arrivalPos="90.46" arrivalSpeed="24.43" duration="306.00" routeLength="1317.38" waitingTime="167.00" waitingCount="4" stopTime="0.00" timeLoss="201.49" rerouteNo="0" devices="tripinfo_26" vType="DEFAULT_VEHTYPE" speedFactor="0.83" vaporized=""/>
    <tripinfo id="27" depart="79.00" departLane="E0_0" departPos="5.10" departSpeed="0.00" departDelay="47.00" arrival="383.00" arrivalLane="E3_0" arrivalPos="90.46" arrivalSpeed="24.85" duration="304.00" routeLength="1317.38" waitingTime="161.00" waitingCount="4" stopTime="0.00" timeLoss="206.29" rerouteNo="0" devices="tripinfo_27" vType="DEFAULT_VEHTYPE" speedFactor="0.87" vaporized=""/>
    <tripinfo id="28" depart="82.00" departLane="E0_0" departPos="5.10" departSpeed="0.00" departDelay="50.00" arrival="386.00" arrivalLane="E3_0" arrivalPos="90.46" arrivalSpeed="25.93" duration="304.00" routeLength="1317.38" waitingTime="158.00" waitingCount="4" stopTime="0.00" timeLoss="210.45" rerouteNo="0" devices="tripinfo_28" vType="DEFAULT_VEHTYPE" speedFactor="0.92" vaporized=""/>
    <tripinfo id="34" depart="100.00" departLane="E0_0" departPos="5.10" departSpeed="0.00" departDelay="64.00" arrival="387.00" arrivalLane="E3_0" arrivalPos="90.46" arrivalSpeed="24.78" duration="287.00" routeLength="1317.38" waitingTime="155.00" waitingCount="5" stopTime="0.00" timeLoss="201.81" rerouteNo="0" devices="tripinfo_34" vType="DEFAULT_VEHTYPE" speedFactor="1.01" vaporized=""/>
    <tripinfo id="94" depart="282.00" departLane="E0_0" departPos="5.10" departSpeed="0.00" departDelay="173.00" arrival="394.00" arrivalLane="E3_0" arrivalPos="90.46" arrivalSpeed="24.08" duration="112.00" routeLength="1314.99" waitingTime="0.00" waitingCount="0" stopTime="0.00" timeLoss="12.84" rerouteNo="0" devices="tripinfo_94" vType="DEFAULT_VEHTYPE" speedFactor="0.83" vaporized=""/>