<?xml version="1.0" encoding="UTF-8"?>

<!-- generated on 2023-04-30 00:05:12 by Eclipse SUMO sumo Version 1.16.0
<configuration xmlns:xsi="http://www.w3.org/2001/XMLSchema-instance" xsi:noNamespaceSchemaLocation="http://sumo.dlr.de/xsd/sumoConfiguration.xsd">

    <input>
        <net-file value="C:\Users\Local_Man\Desktop\Stolen%20Music\school%20stuff%20for%20college\Semester%2015%20(UH%20Graduate%20School)\COSC%206364%20Nikolaos\SUMO_Project\COSC6364_Project\configurations\maps\Braess_Homebrew_fixed1.net.xml"/>
        <route-files value="./configurations/Rounds/Braess_Homebrew_fixed1.net.xml-test-3/Macroscopic_DUE/019/Trips_File_019.rou.xml"/>
    </input>

    <output>
        <summary-output value="./configurations/Rounds/Braess_Homebrew_fixed1.net.xml-test-3/Macroscopic_DUE/019/summary.xml"/>
        <tripinfo-output value="./configurations/Rounds/Braess_Homebrew_fixed1.net.xml-test-3/Macroscopic_DUE/019/trips.trips.xml"/>
        <statistic-output value="./configurations/Rounds/Braess_Homebrew_fixed1.net.xml-test-3/Macroscopic_DUE/019/stats_output.xml"/>
    </output>

    <time>
        <begin value="0"/>
    </time>

    <report>
        <log value="./configurations/Rounds/Braess_Homebrew_fixed1.net.xml-test-3/Macroscopic_DUE/019/log.sumo.log"/>
        <no-step-log value="true"/>
    </report>

    <gui_only>
        <quit-on-end value="true"/>
    </gui_only>

</configuration>
-->

<tripinfos xmlns:xsi="http://www.w3.org/2001/XMLSchema-instance" xsi:noNamespaceSchemaLocation="http://sumo.dlr.de/xsd/tripinfo_file.xsd">
    <tripinfo id="2" depart="1.00" departLane="E0_0" departPos="5.10" departSpeed="19.50" departDelay="0.00" arrival="95.00" arrivalLane="E3_0" arrivalPos="90.46" arrivalSpeed="28.43" duration="94.00" routeLength="1314.99" waitingTime="0.00" waitingCount="0" stopTime="0.00" timeLoss="9.90" rerouteNo="0" devices="tripinfo_2" vType="DEFAULT_VEHTYPE" speedFactor="0.98" vaporized=""/>
    <tripinfo id="4" depart="3.00" departLane="E0_0" departPos="5.10" departSpeed="14.44" departDelay="1.00" arrival="97.00" arrivalLane="E3_0" arrivalPos="90.46" arrivalSpeed="31.51" duration="94.00" routeLength="1314.99" waitingTime="0.00" waitingCount="0" stopTime="0.00" timeLoss="25.07" rerouteNo="0" devices="tripinfo_4" vType="DEFAULT_VEHTYPE" speedFactor="1.20" vaporized=""/>
    <tripinfo id="5" depart="4.00" departLane="E0_0" departPos="5.10" departSpeed="10.75" departDelay="1.00" arrival="98.00" arrivalLane="E3_0" arrivalPos="90.46" arrivalSpeed="31.20" duration="94.00" routeLength="1314.99" waitingTime="0.00" waitingCount="0" stopTime="0.00" timeLoss="15.37" rerouteNo="0" devices="tripinfo_5" vType="DEFAULT_VEHTYPE" speedFactor="1.05" vaporized=""/>
    <tripinfo id="7" depart="6.00" departLane="E0_0" departPos="5.10" departSpeed="3.06" departDelay="1.00" arrival="111.00" arrivalLane="E3_0" arrivalPos="90.46" arrivalSpeed="27.68" duration="105.00" routeLength="1314.99" waitingTime="0.00" waitingCount="0" stopTime="0.00" timeLoss="17.62" rerouteNo="0" devices="tripinfo_7" vType="DEFAULT_VEHTYPE" speedFactor="0.94" vaporized=""/>
    <tripinfo id="9" depart="11.00" departLane="E0_0" departPos="5.10" departSpeed="5.15" departDelay="5.00" arrival="113.00" arrivalLane="E3_0" arrivalPos="90.46" arrivalSpeed="31.43" duration="102.00" routeLength="1314.99" waitingTime="0.00" waitingCount="0" stopTime="0.00" timeLoss="26.29" rerouteNo="0" devices="tripinfo_9" vType="DEFAULT_VEHTYPE" speedFactor="1.09" vaporized=""/>
    <tripinfo id="10" depart="13.00" departLane="E0_0" departPos="5.10" departSpeed="2.48" departDelay="7.00" arrival="121.00" arrivalLane="E3_0" arrivalPos="90.46" arrivalSpeed="26.40" duration="108.00" routeLength="1314.99" waitingTime="0.00" waitingCount="0" stopTime="0.00" timeLoss="18.57" rerouteNo="0" devices="tripinfo_10" vType="DEFAULT_VEHTYPE" speedFactor="0.92" vaporized=""/>
    <tripinfo id="13" depart="21.00" departLane="E0_0" departPos="5.10" departSpeed="7.42" departDelay="12.00" arrival="125.00" arrivalLane="E3_0" arrivalPos="90.46" arrivalSpeed="26.95" duration="104.00" routeLength="1314.99" waitingTime="0.00" waitingCount="0" stopTime="0.00" timeLoss="15.89" rerouteNo="0" devices="tripinfo_13" vType="DEFAULT_VEHTYPE" speedFactor="0.93" vaporized=""/>
    <tripinfo id="15" depart="25.00" departLane="E0_0" departPos="5.10" departSpeed="7.93" departDelay="13.00" arrival="131.00" arrivalLane="E3_0" arrivalPos="90.46" arrivalSpeed="26.80" duration="106.00" routeLength="1314.99" waitingTime="0.00" waitingCount="0" stopTime="0.00" timeLoss="18.71" rerouteNo="0" devices="tripinfo_15" vType="DEFAULT_VEHTYPE" speedFactor="0.94" vaporized=""/>
    <tripinfo id="16" depart="26.00" departLane="E0_0" departPos="5.10" departSpeed="3.59" departDelay="14.00" arrival="133.00" arrivalLane="E3_0" arrivalPos="90.46" arrivalSpeed="29.94" duration="107.00" routeLength="1314.99" waitingTime="0.00" waitingCount="0" stopTime="0.00" timeLoss="30.87" rerouteNo="0" devices="tripinfo_16" vType="DEFAULT_VEHTYPE" speedFactor="1.08" vaporized=""/>
    <tripinfo id="17" depart="28.00" departLane="E0_0" departPos="5.10" departSpeed="3.19" departDelay="14.00" arrival="134.00" arrivalLane="E3_0" arrivalPos="90.46" arrivalSpeed="30.29" duration="106.00" routeLength="1314.99" waitingTime="0.00" waitingCount="0" stopTime="0.00" timeLoss="24.82" rerouteNo="0" devices="tripinfo_17" vType="DEFAULT_VEHTYPE" speedFactor="1.01" vaporized=""/>
    <tripinfo id="18" depart="30.00" departLane="E0_0" departPos="5.10" departSpeed="1.05" departDelay="16.00" arrival="135.00" arrivalLane="E3_0" arrivalPos="90.46" arrivalSpeed="30.15" duration="105.00" routeLength="1314.99" waitingTime="0.00" waitingCount="0" stopTime="0.00" timeLoss="25.77" rerouteNo="0" devices="tripinfo_18" vType="DEFAULT_VEHTYPE" speedFactor="1.03" vaporized=""/>
    <tripinfo id="19" depart="34.00" departLane="E0_0" departPos="5.10" departSpeed="6.09" departDelay="20.00" arrival="144.00" arrivalLane="E3_0" arrivalPos="90.46" arrivalSpeed="25.49" duration="110.00" routeLength="1314.99" waitingTime="0.00" waitingCount="0" stopTime="0.00" timeLoss="17.91" rerouteNo="0" devices="tripinfo_19" vType="DEFAULT_VEHTYPE" speedFactor="0.89" vaporized=""/>
    <tripinfo id="26" depart="48.00" departLane="E0_0" departPos="5.10" departSpeed="6.05" departDelay="29.00" arrival="146.00" arrivalLane="E3_0" arrivalPos="90.46" arrivalSpeed="31.11" duration="98.00" routeLength="1314.99" waitingTime="0.00" waitingCount="0" stopTime="0.00" timeLoss="24.57" rerouteNo="0" devices="tripinfo_26" vType="DEFAULT_VEHTYPE" speedFactor="1.12" vaporized=""/>
    <tripinfo id="29" depart="54.00" departLane="E0_0" departPos="5.10" departSpeed="0.58" departDelay="31.00" arrival="154.00" arrivalLane="E3_0" arrivalPos="90.46" arrivalSpeed="29.79" duration="100.00" routeLength="1314.99" waitingTime="0.00" waitingCount="0" stopTime="0.00" timeLoss="19.20" rerouteNo="0" devices="tripinfo_29" vType="DEFAULT_VEHTYPE" speedFactor="1.02" vaporized=""/>
    <tripinfo id="30" depart="57.00" departLane="E0_0" departPos="5.10" departSpeed="1.03" departDelay="34.00" arrival="162.00" arrivalLane="E3_0" arrivalPos="90.46" arrivalSpeed="28.15" duration="105.00" routeLength="1314.99" waitingTime="0.00" waitingCount="0" stopTime="0.00" timeLoss="18.18" rerouteNo="0" devices="tripinfo_30" vType="DEFAULT_VEHTYPE" speedFactor="0.94" vaporized=""/>
    <tripinfo id="31" depart="60.00" departLane="E0_0" departPos="5.10" departSpeed="0.12" departDelay="31.00" arrival="164.00" arrivalLane="E3_0" arrivalPos="90.46" arrivalSpeed="31.72" duration="104.00" routeLength="1314.99" waitingTime="0.00" waitingCount="0" stopTime="0.00" timeLoss="29.12" rerouteNo="0" devices="tripinfo_31" vType="DEFAULT_VEHTYPE" speedFactor="1.10" vaporized=""/>
    <tripinfo id="3" depart="2.00" departLane="E0_0" departPos="5.10" departSpeed="16.96" departDelay="1.00" arrival="174.00" arrivalLane="E3_0" arrivalPos="90.46" arrivalSpeed="24.38" duration="172.00" routeLength="1317.38" waitingTime="69.00" waitingCount="1" stopTime="0.00" timeLoss="92.84" rerouteNo="0" devices="tripinfo_3" vType="DEFAULT_VEHTYPE" speedFactor="1.08" vaporized=""/>
    <tripinfo id="32" depart="64.00" departLane="E0_0" departPos="5.10" departSpeed="6.06" departDelay="35.00" arrival="177.00" arrivalLane="E3_0" arrivalPos="90.46" arrivalSpeed="23.77" duration="113.00" routeLength="1314.99" waitingTime="0.00" waitingCount="0" stopTime="0.00" timeLoss="14.83" rerouteNo="0" devices="tripinfo_32" vType="DEFAULT_VEHTYPE" speedFactor="0.83" vaporized=""/>
    <tripinfo id="34" depart="68.00" departLane="E0_0" departPos="5.10" departSpeed="4.32" departDelay="35.00" arrival="179.00" arrivalLane="E3_0" arrivalPos="90.46" arrivalSpeed="27.86" duration="111.00" routeLength="1314.99" waitingTime="0.00" waitingCount="0" stopTime="0.00" timeLoss="33.71" rerouteNo="0" devices="tripinfo_34" vType="DEFAULT_VEHTYPE" speedFactor="1.07" vaporized=""/>
    <tripinfo id="6" depart="5.00" departLane="E0_0" departPos="5.10" departSpeed="7.88" departDelay="1.00" arrival="190.00" arrivalLane="E3_0" arrivalPos="90.46" arrivalSpeed="25.02" duration="185.00" routeLength="1317.38" waitingTime="74.00" waitingCount="2" stopTime="0.00" timeLoss="105.56" rerouteNo="0" devices="tripinfo_6" vType="DEFAULT_VEHTYPE" speedFactor="1.08" vaporized=""/>
    <tripinfo id="36" depart="73.00" departLane="E0_0" departPos="5.10" departSpeed="5.92" departDelay="36.00" arrival="196.00" arrivalLane="E3_0" arrivalPos="90.46" arrivalSpeed="22.91" duration="123.00" routeLength="1314.99" waitingTime="0.00" waitingCount="0" stopTime="0.00" timeLoss="16.80" rerouteNo="0" devices="tripinfo_36" vType="DEFAULT_VEHTYPE" speedFactor="0.77" vaporized=""/>
    <tripinfo id="38" depart="77.00" departLane="E0_0" departPos="5.10" departSpeed="7.96" departDelay="36.00" arrival="198.00" arrivalLane="E3_0" arrivalPos="90.46" arrivalSpeed="27.65" duration="121.00" routeLength="1314.99" waitingTime="0.00" waitingCount="0" stopTime="0.00" timeLoss="39.93" rerouteNo="0" devices="tripinfo_38" vType="DEFAULT_VEHTYPE" speedFactor="1.02" vaporized=""/>
    <tripinfo id="39" depart="79.00" departLane="E0_0" departPos="5.10" departSpeed="8.02" departDelay="38.00" arrival="199.00" arrivalLane="E3_0" arrivalPos="90.46" arrivalSpeed="25.79" duration="120.00" routeLength="1314.99" waitingTime="0.00" waitingCount="0" stopTime="0.00" timeLoss="26.30" rerouteNo="0" devices="tripinfo_39" vType="DEFAULT_VEHTYPE" speedFactor="0.88" vaporized=""/>
    <tripinfo id="42" depart="84.00" departLane="E0_0" departPos="5.10" departSpeed="3.51" departDelay="38.00" arrival="200.00" arrivalLane="E3_0" arrivalPos="90.46" arrivalSpeed="26.55" duration="116.00" routeLength="1314.99" waitingTime="0.00" waitingCount="0" stopTime="0.00" timeLoss="37.82" rerouteNo="0" devices="tripinfo_42" vType="DEFAULT_VEHTYPE" speedFactor="1.05" vaporized=""/>
    <tripinfo id="43" depart="86.00" departLane="E0_0" departPos="5.10" departSpeed="2.26" departDelay="40.00" arrival="202.00" arrivalLane="E3_0" arrivalPos="90.46" arrivalSpeed="28.65" duration="116.00" routeLength="1314.99" waitingTime="0.00" waitingCount="0" stopTime="0.00" timeLoss="33.70" rerouteNo="0" devices="tripinfo_43" vType="DEFAULT_VEHTYPE" speedFactor="1.00" vaporized=""/>
    <tripinfo id="44" depart="89.00" departLane="E0_0" departPos="5.10" departSpeed="4.78" departDelay="43.00" arrival="203.00" arrivalLane="E3_0" arrivalPos="90.46" arrivalSpeed="27.83" duration="114.00" routeLength="1314.99" waitingTime="0.00" waitingCount="0" stopTime="0.00" timeLoss="39.41" rerouteNo="0" devices="tripinfo_44" vType="DEFAULT_VEHTYPE" speedFactor="1.10" vaporized=""/>
    <tripinfo id="45" depart="91.00" departLane="E0_0" departPos="5.10" departSpeed="3.98" departDelay="44.00" arrival="205.00" arrivalLane="E3_0" arrivalPos="90.46" arrivalSpeed="25.91" duration="114.00" routeLength="1314.99" waitingTime="0.00" waitingCount="0" stopTime="0.00" timeLoss="22.26" rerouteNo="0" devices="tripinfo_45" vType="DEFAULT_VEHTYPE" speedFactor="0.90" vaporized=""/>
    <tripinfo id="46" depart="93.00" departLane="E0_0" departPos="5.10" departSpeed="1.32" departDelay="45.00" arrival="206.00" arrivalLane="E3_0" arrivalPos="90.46" arrivalSpeed="28.00" duration="113.00" routeLength="1314.99" waitingTime="0.00" waitingCount="0" stopTime="0.00" timeLoss="27.87" rerouteNo="0" devices="tripinfo_46" vType="DEFAULT_VEHTYPE" speedFactor="0.96" vaporized=""/>
    <tripinfo id="50" depart="103.00" departLane="E0_0" departPos="5.10" departSpeed="0.81" departDelay="51.00" arrival="208.00" arrivalLane="E3_0" arrivalPos="90.46" arrivalSpeed="29.46" duration="105.00" routeLength="1314.99" waitingTime="0.00" waitingCount="0" stopTime="0.00" timeLoss="22.11" rerouteNo="0" devices="tripinfo_50" vType="DEFAULT_VEHTYPE" speedFactor="1.00" vaporized=""/>
    <tripinfo id="51" depart="107.00" departLane="E0_0" departPos="5.10" departSpeed="6.90" departDelay="53.00" arrival="209.00" arrivalLane="E3_0" arrivalPos="90.46" arrivalSpeed="29.30" duration="102.00" routeLength="1314.99" waitingTime="0.00" waitingCount="0" stopTime="0.00" timeLoss="18.73" rerouteNo="0" devices="tripinfo_51" vType="DEFAULT_VEHTYPE" speedFactor="0.99" vaporized=""/>
    <tripinfo id="8" depart="9.00" departLane="E0_0" departPos="5.10" departSpeed="5.58" departDelay="4.00" arrival="219.00" arrivalLane="E3_0" arrivalPos="90.46" arrivalSpeed="25.01" duration="210.00" routeLength="1317.38" waitingTime="90.00" waitingCount="3" stopTime="0.00" timeLoss="125.35" rerouteNo="0" devices="tripinfo_8" vType="DEFAULT_VEHTYPE" speedFactor="1.02" vaporized=""/>
    <tripinfo id="56" depart="117.00" departLane="E0_0" departPos="5.10" departSpeed="6.84" departDelay="60.00" arrival="224.00" arrivalLane="E3_0" arrivalPos="90.46" arrivalSpeed="27.18" duration="107.00" routeLength="1314.99" waitingTime="0.00" waitingCount="0" stopTime="0.00" timeLoss="18.20" rerouteNo="0" devices="tripinfo_56" vType="DEFAULT_VEHTYPE" speedFactor="0.93" vaporized=""/>
    <tripinfo id="62" depart="132.00" departLane="E0_0" departPos="5.10" departSpeed="7.04" departDelay="68.00" arrival="239.00" arrivalLane="E3_0" arrivalPos="90.46" arrivalSpeed="26.87" duration="107.00" routeLength="1314.99" waitingTime="0.00" waitingCount="0" stopTime="0.00" timeLoss="15.12" rerouteNo="0" devices="tripinfo_62" vType="DEFAULT_VEHTYPE" speedFactor="0.90" vaporized=""/>
    <tripinfo id="65" depart="138.00" departLane="E0_0" departPos="5.10" departSpeed="3.73" departDelay="70.00" arrival="241.00" arrivalLane="E3_0" arrivalPos="90.46" arrivalSpeed="28.60" duration="103.00" routeLength="1314.99" waitingTime="0.00" waitingCount="0" stopTime="0.00" timeLoss="18.32" rerouteNo="0" devices="tripinfo_65" vType="DEFAULT_VEHTYPE" speedFactor="0.98" vaporized=""/>
    <tripinfo id="66" depart="141.00" departLane="E0_0" departPos="5.10" departSpeed="6.69" departDelay="71.00" arrival="242.00" arrivalLane="E3_0" arrivalPos="90.46" arrivalSpeed="28.24" duration="101.00" routeLength="1314.99" waitingTime="0.00" waitingCount="0" stopTime="0.00" timeLoss="17.10" rerouteNo="0" devices="tripinfo_66" vType="DEFAULT_VEHTYPE" speedFactor="0.98" vaporized=""/>
    <tripinfo id="68" depart="144.00" departLane="E0_0" departPos="5.10" departSpeed="3.01" departDelay="70.00" arrival="249.00" arrivalLane="E3_0" arrivalPos="90.46" arrivalSpeed="27.53" duration="105.00" routeLength="1314.99" waitingTime="0.00" waitingCount="0" stopTime="0.00" timeLoss="17.56" rerouteNo="0" devices="tripinfo_68" vType="DEFAULT_VEHTYPE" speedFactor="0.94" vaporized=""/>
    <tripinfo id="75" depart="159.00" departLane="E0_0" departPos="5.10" departSpeed="7.41" departDelay="77.00" arrival="252.00" arrivalLane="E3_0" arrivalPos="90.46" arrivalSpeed="32.88" duration="93.00" routeLength="1314.99" waitingTime="0.00" waitingCount="0" stopTime="0.00" timeLoss="18.36" rerouteNo="0" devices="tripinfo_75" vType="DEFAULT_VEHTYPE" speedFactor="1.10" vaporized=""/>
    <tripinfo id="76" depart="161.00" departLane="E0_0" departPos="5.10" departSpeed="9.08" departDelay="79.00" arrival="254.00" arrivalLane="E3_0" arrivalPos="90.46" arrivalSpeed="34.17" duration="93.00" routeLength="1314.99" waitingTime="0.00" waitingCount="0" stopTime="0.00" timeLoss="20.70" rerouteNo="0" devices="tripinfo_76" vType="DEFAULT_VEHTYPE" speedFactor="1.14" vaporized=""/>
    <tripinfo id="11" depart="16.00" departLane="E0_0" departPos="5.10" departSpeed="2.65" departDelay="9.00" arrival="264.00" arrivalLane="E3_0" arrivalPos="90.46" arrivalSpeed="23.76" duration="248.00" routeLength="1317.38" waitingTime="126.00" waitingCount="4" stopTime="0.00" timeLoss="171.49" rerouteNo="0" devices="tripinfo_11" vType="DEFAULT_VEHTYPE" speedFactor="1.12" vaporized=""/>
    <tripinfo id="80" depart="170.00" departLane="E0_0" departPos="5.10" departSpeed="5.17" departDelay="82.00" arrival="266.00" arrivalLane="E3_0" arrivalPos="90.46" arrivalSpeed="29.08" duration="96.00" routeLength="1314.99" waitingTime="0.00" waitingCount="0" stopTime="0.00" timeLoss="19.52" rerouteNo="0" devices="tripinfo_80" vType="DEFAULT_VEHTYPE" speedFactor="1.08" vaporized=""/>
    <tripinfo id="83" depart="176.00" departLane="E0_0" departPos="5.10" departSpeed="5.50" departDelay="84.00" arrival="273.00" arrivalLane="E3_0" arrivalPos="90.46" arrivalSpeed="31.87" duration="97.00" routeLength="1314.99" waitingTime="0.00" waitingCount="0" stopTime="0.00" timeLoss="19.30" rerouteNo="0" devices="tripinfo_83" vType="DEFAULT_VEHTYPE" speedFactor="1.06" vaporized=""/>
    <tripinfo id="86" depart="183.00" departLane="E0_0" departPos="5.10" departSpeed="5.11" departDelay="88.00" arrival="283.00" arrivalLane="E3_0" arrivalPos="90.46" arrivalSpeed="30.26" duration="100.00" routeLength="1314.99" waitingTime="0.00" waitingCount="0" stopTime="0.00" timeLoss="19.02" rerouteNo="0" devices="tripinfo_86" vType="DEFAULT_VEHTYPE" speedFactor="1.02" vaporized=""/>
    <tripinfo id="89" depart="190.00" departLane="E0_0" departPos="5.10" departSpeed="0.24" departDelay="91.00" arrival="284.00" arrivalLane="E3_0" arrivalPos="90.46" arrivalSpeed="32.52" duration="94.00" routeLength="1314.99" waitingTime="0.00" waitingCount="0" stopTime="0.00" timeLoss="23.83" rerouteNo="0" devices="tripinfo_89" vType="DEFAULT_VEHTYPE" speedFactor="1.18" vaporized=""/>
    <tripinfo id="12" depart="19.00" departLane="E0_0" departPos="5.10" departSpeed="6.35" departDelay="11.00" arrival="294.00" arrivalLane="E3_0" arrivalPos="90.46" arrivalSpeed="24.18" duration="275.00" routeLength="1317.38" waitingTime="136.00" waitingCount="5" stopTime="0.00" timeLoss="179.69" rerouteNo="0" devices="tripinfo_12" vType="DEFAULT_VEHTYPE" speedFactor="0.90" vaporized=""/>
    <tripinfo id="92" depart="198.00" departLane="E0_0" departPos="5.10" departSpeed="8.26" departDelay="97.00" arrival="298.00" arrivalLane="E3_0" arrivalPos="90.46" arrivalSpeed="29.03" duration="100.00" routeLength="1314.99" waitingTime="0.00" waitingCount="0" stopTime="0.00" timeLoss="15.67" rerouteNo="0" devices="tripinfo_92" vType="DEFAULT_VEHTYPE" speedFactor="0.98" vaporized=""/>
    <tripinfo id="93" depart="199.00" departLane="E0_0" departPos="5.10" departSpeed="3.39" departDelay="98.00" arrival="303.00" arrivalLane="E3_0" arrivalPos="90.46" arrivalSpeed="27.21" duration="104.00" routeLength="1314.99" waitingTime="0.00" waitingCount="0" stopTime="0.00" timeLoss="16.70" rerouteNo="0" devices="tripinfo_93" vType="DEFAULT_VEHTYPE" speedFactor="0.94" vaporized=""/>
    <tripinfo id="94" depart="201.00" departLane="E0_0" departPos="5.10" departSpeed="0.60" departDelay="100.00" arrival="304.00" arrivalLane="E3_0" arrivalPos="90.46" arrivalSpeed="29.33" duration="103.00" routeLength="1314.99" waitingTime="0.00" waitingCount="0" stopTime="0.00" timeLoss="23.52" rerouteNo="0" devices="tripinfo_94" vType="DEFAULT_VEHTYPE" speedFactor="1.03" vaporized=""/>
    <tripinfo id="96" depart="207.00" departLane="E0_0" departPos="5.10" departSpeed="4.89" departDelay="97.00" arrival="318.00" arrivalLane="E3_0" arrivalPos="90.46" arrivalSpeed="25.67" duration="111.00" routeLength="1314.99" waitingTime="0.00" waitingCount="0" stopTime="0.00" timeLoss="17.82" rerouteNo="0" devices="tripinfo_96" vType="DEFAULT_VEHTYPE" speedFactor="0.89" vaporized=""/>
    <tripinfo id="100" depart="216.00" departLane="E0_0" departPos="5.10" departSpeed="2.87" departDelay="98.00" arrival="319.00" arrivalLane="E3_0" arrivalPos="90.46" arrivalSpeed="27.96" duration="103.00" routeLength="1314.99" waitingTime="0.00" waitingCount="0" stopTime="0.00" timeLoss="28.38" rerouteNo="0" devices="tripinfo_100" vType="DEFAULT_VEHTYPE" speedFactor="1.10" vaporized=""/>
    <tripinfo id="14" depart="23.00" departLane="E0_0" departPos="5.10" departSpeed="7.47" departDelay="12.00" arrival="328.00" arrivalLane="E3_0" arrivalPos="90.46" arrivalSpeed="24.28" duration="305.00" routeLength="1317.38" waitingTime="160.00" waitingCount="6" stopTime="0.00" timeLoss="222.85" rerouteNo="0" devices="tripinfo_14" vType="DEFAULT_VEHTYPE" speedFactor="1.04" vaporized=""/>
    <tripinfo id="102" depart="221.00" departLane="E0_0" departPos="5.10" departSpeed="4.56" departDelay="102.00" arrival="336.00" arrivalLane="E3_0" arrivalPos="90.46" arrivalSpeed="24.72" duration="115.00" routeLength="1314.99" waitingTime="0.00" waitingCount="0" stopTime="0.00" timeLoss="17.12" rerouteNo="0" devices="tripinfo_102" vType="DEFAULT_VEHTYPE" speedFactor="0.84" vaporized=""/>
    <tripinfo id="104" depart="225.00" departLane="E0_0" departPos="5.10" departSpeed="0.29" departDelay="104.00" arrival="338.00" arrivalLane="E3_0" arrivalPos="90.46" arrivalSpeed="27.84" duration="113.00" routeLength="1314.99" waitingTime="0.00" waitingCount="0" stopTime="0.00" timeLoss="33.35" rerouteNo="0" devices="tripinfo_104" vType="DEFAULT_VEHTYPE" speedFactor="1.04" vaporized=""/>
    <tripinfo id="106" depart="231.00" departLane="E0_0" departPos="5.10" departSpeed="2.96" departDelay="109.00" arrival="339.00" arrivalLane="E3_0" arrivalPos="90.46" arrivalSpeed="27.67" duration="108.00" routeLength="1314.99" waitingTime="0.00" waitingCount="0" stopTime="0.00" timeLoss="21.97" rerouteNo="0" devices="tripinfo_106" vType="DEFAULT_VEHTYPE" speedFactor="0.95" vaporized=""/>
    <tripinfo id="110" depart="241.00" departLane="E0_0" departPos="5.10" departSpeed="7.34" departDelay="117.00" arrival="341.00" arrivalLane="E3_0" arrivalPos="90.46" arrivalSpeed="29.76" duration="100.00" routeLength="1314.99" waitingTime="0.00" waitingCount="0" stopTime="0.00" timeLoss="18.86" rerouteNo="0" devices="tripinfo_110" vType="DEFAULT_VEHTYPE" speedFactor="1.01" vaporized=""/>
    <tripinfo id="111" depart="243.00" departLane="E0_0" departPos="5.10" departSpeed="7.89" departDelay="118.00" arrival="342.00" arrivalLane="E3_0" arrivalPos="90.46" arrivalSpeed="29.68" duration="99.00" routeLength="1314.99" waitingTime="0.00" waitingCount="0" stopTime="0.00" timeLoss="26.33" rerouteNo="0" devices="tripinfo_111" vType="DEFAULT_VEHTYPE" speedFactor="1.13" vaporized=""/>
    <tripinfo id="20" depart="36.00" departLane="E0_0" departPos="5.10" departSpeed="6.06" departDelay="21.00" arrival="351.00" arrivalLane="E3_0" arrivalPos="90.46" arrivalSpeed="25.57" duration="315.00" routeLength="1317.38" waitingTime="167.00" waitingCount="7" stopTime="0.00" timeLoss="230.10" rerouteNo="0" devices="tripinfo_20" vType="DEFAULT_VEHTYPE" speedFactor="1.01" vaporized=""/>
    <tripinfo id="113" depart="247.00" departLane="E0_0" departPos="5.10" departSpeed="6.13" departDelay="119.00" arrival="357.00" arrivalLane="E3_0" arrivalPos="90.46" arrivalSpeed="26.13" duration="110.00" routeLength="1314.99" waitingTime="0.00" waitingCount="0" stopTime="0.00" timeLoss="16.55" rerouteNo="0" devices="tripinfo_113" vType="DEFAULT_VEHTYPE" speedFactor="0.89" vaporized=""/>
    <tripinfo id="114" depart="249.00" departLane="E0_0" departPos="5.10" departSpeed="5.10" departDelay="121.00" arrival="358.00" arrivalLane="E3_0" arrivalPos="90.46" arrivalSpeed="27.81" duration="109.00" routeLength="1314.99" waitingTime="0.00" waitingCount="0" stopTime="0.00" timeLoss="23.64" rerouteNo="0" devices="tripinfo_114" vType="DEFAULT_VEHTYPE" speedFactor="0.97" vaporized=""/>
    <tripinfo id="115" depart="251.00" departLane="E0_0" departPos="5.10" departSpeed="4.77" departDelay="122.00" arrival="359.00" arrivalLane="E3_0" arrivalPos="90.46" arrivalSpeed="28.23" duration="108.00" routeLength="1314.99" waitingTime="0.00" waitingCount="0" stopTime="0.00" timeLoss="28.96" rerouteNo="0" devices="tripinfo_115" vType="DEFAULT_VEHTYPE" speedFactor="1.04" vaporized=""/>
    <tripinfo id="120" depart="263.00" departLane="E0_0" departPos="5.10" departSpeed="5.93" departDelay="131.00" arrival="361.00" arrivalLane="E3_0" arrivalPos="90.46" arrivalSpeed="29.60" duration="98.00" routeLength="1314.99" waitingTime="0.00" waitingCount="0" stopTime="0.00" timeLoss="16.84" rerouteNo="0" devices="tripinfo_120" vType="DEFAULT_VEHTYPE" speedFactor="1.01" vaporized=""/>
    <tripinfo id="122" depart="267.00" departLane="E0_0" departPos="5.10" departSpeed="5.79" departDelay="134.00" arrival="369.00" arrivalLane="E3_0" arrivalPos="90.46" arrivalSpeed="29.32" duration="102.00" routeLength="1314.99" waitingTime="0.00" waitingCount="0" stopTime="0.00" timeLoss="19.03" rerouteNo="0" devices="tripinfo_122" vType="DEFAULT_VEHTYPE" speedFactor="1.00" vaporized=""/>
    <tripinfo id="21" depart="38.00" departLane="E0_0" departPos="5.10" departSpeed="6.91" departDelay="21.00" arrival="379.00" arrivalLane="E3_0" arrivalPos="90.46" arrivalSpeed="24.21" duration="341.00" routeLength="1317.38" waitingTime="174.00" waitingCount="8" stopTime="0.00" timeLoss="242.38" rerouteNo="0" devices="tripinfo_21" vType="DEFAULT_VEHTYPE" speedFactor="0.87" vaporized=""/>
    <tripinfo id="22" depart="40.00" departLane="E0_0" departPos="5.10" departSpeed="7.45" departDelay="22.00" arrival="380.00" arrivalLane="E3_0" arrivalPos="90.46" arrivalSpeed="23.90" duration="340.00" routeLength="1317.38" waitingTime="171.00" waitingCount="8" stopTime="0.00" timeLoss="256.92" rerouteNo="0" devices="tripinfo_22" vType="DEFAULT_VEHTYPE" speedFactor="1.03" vaporized=""/>
    <tripinfo id="23" depart="42.00" departLane="E0_0" departPos="5.10" departSpeed="7.82" departDelay="24.00" arrival="383.00" arrivalLane="E3_0" arrivalPos="90.46" arrivalSpeed="24.13" duration="341.00" routeLength="1317.38" waitingTime="168.00" waitingCount="8" stopTime="0.00" timeLoss="265.12" rerouteNo="0" devices="tripinfo_23" vType="DEFAULT_VEHTYPE" speedFactor="1.13" vaporized=""/>
    <tripinfo id="24" depart="44.00" departLane="E0_0" departPos="5.10" departSpeed="8.10" departDelay="25.00" arrival="384.00" arrivalLane="E3_0" arrivalPos="90.46" arrivalSpeed="23.14" duration="340.00" routeLength="1317.38" waitingTime="167.00" waitingCount="8" stopTime="0.00" timeLoss="244.53" rerouteNo="0" devices="tripinfo_24" vType="DEFAULT_VEHTYPE" speedFactor="0.89" vaporized=""/>
    <tripinfo id="124" depart="271.00" departLane="E0_0" departPos="5.10" departSpeed="5.58" departDelay="138.00" arrival="392.00" arrivalLane="E3_0" arrivalPos="90.46" arrivalSpeed="23.28" duration="121.00" routeLength="1314.99" waitingTime="0.00" waitingCount="0" stopTime="0.00" timeLoss="18.43" rerouteNo="0" devices="tripinfo_124" vType="DEFAULT_VEHTYPE" speedFactor="0.80" vaporized=""/>
    <tripinfo id="126" depart="275.00" departLane="E0_0" departPos="5.10" departSpeed="4.94" departDelay="141.00" arrival="393.00" arrivalLane="E3_0" arrivalPos="90.46" arrivalSpeed="24.21" duration="118.00" routeLength="1314.99" waitingTime="0.00" waitingCount="0" stopTime="0.00" timeLoss="33.79" rerouteNo="0" devices="tripinfo_126" vType="DEFAULT_VEHTYPE" speedFactor="0.97" vaporized=""/>
    <tripinfo id="127" depart="277.00" departLane="E0_0" departPos="5.10" departSpeed="4.59" departDelay="143.00" arrival="395.00" arrivalLane="E3_0" arrivalPos="90.46" arrivalSpeed="26.16" duration="118.00" routeLength="1314.99" waitingTime="0.00" waitingCount="0" stopTime="0.00" timeLoss="27.86" rerouteNo="0" devices="tripinfo_127" vType="DEFAULT_VEHTYPE" speedFactor="0.91" vaporized=""/>
    <tripinfo id="128" depart="279.00" departLane="E0_0" departPos="5.10" departSpeed="2.82" departDelay="145.00" arrival="396.00" arrivalLane="E3_0" arrivalPos="90.46" arrivalSpeed="24.88" duration="117.00" routeLength="1314.99" waitingTime="0.00" waitingCount="0" stopTime="0.00" timeLoss="44.37" rerouteNo="0" devices="tripinfo_128" vType="DEFAULT_VEHTYPE" speedFactor="1.13" vaporized=""/>
    <tripinfo id="129" depart="282.00" departLane="E0_0" departPos="5.10" departSpeed="6.03" departDelay="147.00" arrival="398.00" arrivalLane="E3_0" arrivalPos="90.46" arrivalSpeed="27.27" duration="116.00" routeLength="1314.99" waitingTime="0.00" waitingCount="0" stopTime="0.00" timeLoss="32.15" rerouteNo="0" devices="tripinfo_129" vType="DEFAULT_VEHTYPE" speedFactor="0.98" vaporized=""/>
    <tripinfo id="131" depart="286.00" departLane="E0_0" departPos="5.10" departSpeed="8.05" departDelay="150.00" arrival="399.00" arrivalLane="E3_0" arrivalPos="90.46" arrivalSpeed="26.37" duration="113.00" routeLength="1314.99" waitingTime="0.00" waitingCount="0" stopTime="0.00" timeLoss="21.70" rerouteNo="0" devices="tripinfo_131" vType="DEFAULT_VEHTYPE" speedFactor="0.90" vaporized=""/>
    <tripinfo id="133" depart="289.00" departLane="E0_0" departPos="5.10" departSpeed="0.73" departDelay="152.00" arrival="401.00" arrivalLane="E3_0" arrivalPos="90.46" arrivalSpeed="27.75" duration="112.00" routeLength="1314.99" waitingTime="0.00" waitingCount="0" stopTime="0.00" timeLoss="26.03" rerouteNo="0" devices="tripinfo_133" vType="DEFAULT_VEHTYPE" speedFactor="0.96" vaporized=""/>