<?xml version="1.0" encoding="UTF-8"?>

<!-- generated on 2023-04-28 22:52:28 by Eclipse SUMO sumo Version 1.16.0
<configuration xmlns:xsi="http://www.w3.org/2001/XMLSchema-instance" xsi:noNamespaceSchemaLocation="http://sumo.dlr.de/xsd/sumoConfiguration.xsd">

    <input>
        <net-file value="C:\Users\Local_Man\Desktop\Stolen%20Music\school%20stuff%20for%20college\Semester%2015%20(UH%20Graduate%20School)\COSC%206364%20Nikolaos\SUMO_Project\COSC6364_Project\configurations\maps\Braess_Homebrew_fixed1.net.xml"/>
        <route-files value="./configurations/Rounds/Braess_Homebrew_fixed1.net.xml-test-2/Macroscopic_DUE/000/Trips_File_000.rou.xml"/>
    </input>

    <output>
        <summary-output value="./configurations/Rounds/Braess_Homebrew_fixed1.net.xml-test-2/Macroscopic_DUE/000/summary.xml"/>
        <tripinfo-output value="./configurations/Rounds/Braess_Homebrew_fixed1.net.xml-test-2/Macroscopic_DUE/000/trips.trips.xml"/>
        <statistic-output value="./configurations/Rounds/Braess_Homebrew_fixed1.net.xml-test-2/Macroscopic_DUE/000/stats_output.xml"/>
    </output>

    <time>
        <begin value="0"/>
    </time>

    <report>
        <log value="./configurations/Rounds/Braess_Homebrew_fixed1.net.xml-test-2/Macroscopic_DUE/000/log.sumo.log"/>
        <no-step-log value="true"/>
    </report>

    <gui_only>
        <quit-on-end value="true"/>
    </gui_only>

</configuration>
-->

<tripinfos xmlns:xsi="http://www.w3.org/2001/XMLSchema-instance" xsi:noNamespaceSchemaLocation="http://sumo.dlr.de/xsd/tripinfo_file.xsd">
    <tripinfo id="2" depart="3.00" departLane="E0_0" departPos="5.10" departSpeed="19.50" departDelay="0.00" arrival="96.00" arrivalLane="E3_0" arrivalPos="90.46" arrivalSpeed="28.39" duration="93.00" routeLength="1314.99" waitingTime="0.00" waitingCount="0" stopTime="0.00" timeLoss="9.26" rerouteNo="0" devices="tripinfo_2" vType="DEFAULT_VEHTYPE" speedFactor="0.98" vaporized=""/>
    <tripinfo id="3" depart="4.00" departLane="E0_0" departPos="5.10" departSpeed="16.96" departDelay="1.00" arrival="98.00" arrivalLane="E3_0" arrivalPos="90.46" arrivalSpeed="31.63" duration="94.00" routeLength="1314.99" waitingTime="0.00" waitingCount="0" stopTime="0.00" timeLoss="17.82" rerouteNo="0" devices="tripinfo_3" vType="DEFAULT_VEHTYPE" speedFactor="1.08" vaporized=""/>
    <tripinfo id="4" depart="8.00" departLane="E0_0" departPos="5.10" departSpeed="24.01" departDelay="0.00" arrival="99.00" arrivalLane="E3_0" arrivalPos="90.46" arrivalSpeed="31.78" duration="91.00" routeLength="1314.99" waitingTime="0.00" waitingCount="0" stopTime="0.00" timeLoss="22.58" rerouteNo="0" devices="tripinfo_4" vType="DEFAULT_VEHTYPE" speedFactor="1.20" vaporized=""/>
    <tripinfo id="5" depart="9.00" departLane="E0_0" departPos="5.10" departSpeed="20.92" departDelay="0.00" arrival="101.00" arrivalLane="E3_0" arrivalPos="90.46" arrivalSpeed="30.91" duration="92.00" routeLength="1314.99" waitingTime="0.00" waitingCount="0" stopTime="0.00" timeLoss="12.98" rerouteNo="0" devices="tripinfo_5" vType="DEFAULT_VEHTYPE" speedFactor="1.05" vaporized=""/>
    <tripinfo id="6" depart="10.00" departLane="E0_0" departPos="5.10" departSpeed="18.18" departDelay="0.00" arrival="102.00" arrivalLane="E3_0" arrivalPos="90.46" arrivalSpeed="31.19" duration="92.00" routeLength="1314.99" waitingTime="0.00" waitingCount="0" stopTime="0.00" timeLoss="15.86" rerouteNo="0" devices="tripinfo_6" vType="DEFAULT_VEHTYPE" speedFactor="1.08" vaporized=""/>
    <tripinfo id="7" depart="12.00" departLane="E0_0" departPos="5.10" departSpeed="18.76" departDelay="0.00" arrival="112.00" arrivalLane="E3_0" arrivalPos="90.46" arrivalSpeed="27.35" duration="100.00" routeLength="1314.99" waitingTime="0.00" waitingCount="0" stopTime="0.00" timeLoss="12.62" rerouteNo="0" devices="tripinfo_7" vType="DEFAULT_VEHTYPE" speedFactor="0.94" vaporized=""/>
    <tripinfo id="8" depart="14.00" departLane="E0_0" departPos="5.10" departSpeed="20.00" departDelay="0.00" arrival="114.00" arrivalLane="E3_0" arrivalPos="90.46" arrivalSpeed="29.66" duration="100.00" routeLength="1314.99" waitingTime="0.00" waitingCount="0" stopTime="0.00" timeLoss="19.16" rerouteNo="0" devices="tripinfo_8" vType="DEFAULT_VEHTYPE" speedFactor="1.02" vaporized=""/>
    <tripinfo id="9" depart="15.00" departLane="E0_0" departPos="5.10" departSpeed="18.22" departDelay="0.00" arrival="115.00" arrivalLane="E3_0" arrivalPos="90.46" arrivalSpeed="29.95" duration="100.00" routeLength="1314.99" waitingTime="0.00" waitingCount="0" stopTime="0.00" timeLoss="24.57" rerouteNo="0" devices="tripinfo_9" vType="DEFAULT_VEHTYPE" speedFactor="1.09" vaporized=""/>
    <tripinfo id="10" depart="16.00" departLane="E0_0" departPos="5.10" departSpeed="15.13" departDelay="1.00" arrival="123.00" arrivalLane="E3_0" arrivalPos="90.46" arrivalSpeed="27.61" duration="107.00" routeLength="1314.99" waitingTime="0.00" waitingCount="0" stopTime="0.00" timeLoss="17.43" rerouteNo="0" devices="tripinfo_10" vType="DEFAULT_VEHTYPE" speedFactor="0.92" vaporized=""/>
    <tripinfo id="11" depart="17.00" departLane="E0_0" departPos="5.10" departSpeed="12.04" departDelay="0.00" arrival="124.00" arrivalLane="E3_0" arrivalPos="90.46" arrivalSpeed="28.94" duration="107.00" routeLength="1314.99" waitingTime="0.00" waitingCount="0" stopTime="0.00" timeLoss="33.63" rerouteNo="0" devices="tripinfo_11" vType="DEFAULT_VEHTYPE" speedFactor="1.12" vaporized=""/>
    <tripinfo id="12" depart="20.00" departLane="E0_0" departPos="5.10" departSpeed="14.16" departDelay="0.00" arrival="129.00" arrivalLane="E3_0" arrivalPos="90.46" arrivalSpeed="26.90" duration="109.00" routeLength="1314.99" waitingTime="0.00" waitingCount="0" stopTime="0.00" timeLoss="17.40" rerouteNo="0" devices="tripinfo_12" vType="DEFAULT_VEHTYPE" speedFactor="0.90" vaporized=""/>
    <tripinfo id="13" depart="21.00" departLane="E0_0" departPos="5.10" departSpeed="11.57" departDelay="1.00" arrival="130.00" arrivalLane="E3_0" arrivalPos="90.46" arrivalSpeed="26.60" duration="109.00" routeLength="1314.99" waitingTime="0.00" waitingCount="0" stopTime="0.00" timeLoss="20.31" rerouteNo="0" devices="tripinfo_13" vType="DEFAULT_VEHTYPE" speedFactor="0.93" vaporized=""/>
    <tripinfo id="14" depart="22.00" departLane="E0_0" departPos="5.10" departSpeed="7.23" departDelay="0.00" arrival="131.00" arrivalLane="E3_0" arrivalPos="90.46" arrivalSpeed="29.14" duration="109.00" routeLength="1314.99" waitingTime="0.00" waitingCount="0" stopTime="0.00" timeLoss="30.69" rerouteNo="0" devices="tripinfo_14" vType="DEFAULT_VEHTYPE" speedFactor="1.04" vaporized=""/>
    <tripinfo id="15" depart="24.00" departLane="E0_0" departPos="5.10" departSpeed="6.76" departDelay="1.00" arrival="134.00" arrivalLane="E3_0" arrivalPos="90.46" arrivalSpeed="27.29" duration="110.00" routeLength="1314.99" waitingTime="0.00" waitingCount="0" stopTime="0.00" timeLoss="22.31" rerouteNo="0" devices="tripinfo_15" vType="DEFAULT_VEHTYPE" speedFactor="0.94" vaporized=""/>
    <tripinfo id="16" depart="26.00" departLane="E0_0" departPos="5.10" departSpeed="5.88" departDelay="3.00" arrival="136.00" arrivalLane="E3_0" arrivalPos="90.46" arrivalSpeed="31.80" duration="110.00" routeLength="1314.99" waitingTime="0.00" waitingCount="0" stopTime="0.00" timeLoss="33.26" rerouteNo="0" devices="tripinfo_16" vType="DEFAULT_VEHTYPE" speedFactor="1.08" vaporized=""/>
    <tripinfo id="17" depart="28.00" departLane="E0_0" departPos="5.10" departSpeed="5.34" departDelay="4.00" arrival="137.00" arrivalLane="E3_0" arrivalPos="90.46" arrivalSpeed="29.52" duration="109.00" routeLength="1314.99" waitingTime="0.00" waitingCount="0" stopTime="0.00" timeLoss="27.24" rerouteNo="0" devices="tripinfo_17" vType="DEFAULT_VEHTYPE" speedFactor="1.01" vaporized=""/>
    <tripinfo id="18" depart="30.00" departLane="E0_0" departPos="5.10" departSpeed="4.25" departDelay="6.00" arrival="138.00" arrivalLane="E3_0" arrivalPos="90.46" arrivalSpeed="30.38" duration="108.00" routeLength="1314.99" waitingTime="0.00" waitingCount="0" stopTime="0.00" timeLoss="28.11" rerouteNo="0" devices="tripinfo_18" vType="DEFAULT_VEHTYPE" speedFactor="1.03" vaporized=""/>
    <tripinfo id="19" depart="32.00" departLane="E0_0" departPos="5.10" departSpeed="2.75" departDelay="4.00" arrival="147.00" arrivalLane="E3_0" arrivalPos="90.46" arrivalSpeed="26.27" duration="115.00" routeLength="1314.99" waitingTime="0.00" waitingCount="0" stopTime="0.00" timeLoss="22.75" rerouteNo="0" devices="tripinfo_19" vType="DEFAULT_VEHTYPE" speedFactor="0.89" vaporized=""/>
    <tripinfo id="20" depart="35.00" departLane="E0_0" departPos="5.10" departSpeed="6.80" departDelay="6.00" arrival="148.00" arrivalLane="E3_0" arrivalPos="90.46" arrivalSpeed="27.74" duration="113.00" routeLength="1314.99" waitingTime="0.00" waitingCount="0" stopTime="0.00" timeLoss="32.15" rerouteNo="0" devices="tripinfo_20" vType="DEFAULT_VEHTYPE" speedFactor="1.01" vaporized=""/>
    <tripinfo id="21" depart="37.00" departLane="E0_0" departPos="5.10" departSpeed="6.49" departDelay="6.00" arrival="155.00" arrivalLane="E3_0" arrivalPos="90.46" arrivalSpeed="25.95" duration="118.00" routeLength="1314.99" waitingTime="0.00" waitingCount="0" stopTime="0.00" timeLoss="23.93" rerouteNo="0" devices="tripinfo_21" vType="DEFAULT_VEHTYPE" speedFactor="0.87" vaporized=""/>
    <tripinfo id="22" depart="39.00" departLane="E0_0" departPos="5.10" departSpeed="4.93" departDelay="7.00" arrival="157.00" arrivalLane="E3_0" arrivalPos="90.46" arrivalSpeed="28.82" duration="118.00" routeLength="1314.99" waitingTime="0.00" waitingCount="0" stopTime="0.00" timeLoss="37.81" rerouteNo="0" devices="tripinfo_22" vType="DEFAULT_VEHTYPE" speedFactor="1.03" vaporized=""/>
    <tripinfo id="23" depart="42.00" departLane="E0_0" departPos="5.10" departSpeed="2.91" departDelay="10.00" arrival="158.00" arrivalLane="E3_0" arrivalPos="90.46" arrivalSpeed="28.88" duration="116.00" routeLength="1314.99" waitingTime="0.00" waitingCount="0" stopTime="0.00" timeLoss="43.02" rerouteNo="0" devices="tripinfo_23" vType="DEFAULT_VEHTYPE" speedFactor="1.13" vaporized=""/>
    <tripinfo id="24" depart="45.00" departLane="E0_0" departPos="5.10" departSpeed="3.29" departDelay="12.00" arrival="160.00" arrivalLane="E3_0" arrivalPos="90.46" arrivalSpeed="26.56" duration="115.00" routeLength="1314.99" waitingTime="0.00" waitingCount="0" stopTime="0.00" timeLoss="23.54" rerouteNo="0" devices="tripinfo_24" vType="DEFAULT_VEHTYPE" speedFactor="0.89" vaporized=""/>
    <tripinfo id="25" depart="48.00" departLane="E0_0" departPos="5.10" departSpeed="4.49" departDelay="15.00" arrival="162.00" arrivalLane="E3_0" arrivalPos="90.46" arrivalSpeed="32.16" duration="114.00" routeLength="1314.99" waitingTime="0.00" waitingCount="0" stopTime="0.00" timeLoss="42.40" rerouteNo="0" devices="tripinfo_25" vType="DEFAULT_VEHTYPE" speedFactor="1.15" vaporized=""/>
    <tripinfo id="26" depart="50.00" departLane="E0_0" departPos="5.10" departSpeed="0.94" departDelay="16.00" arrival="163.00" arrivalLane="E3_0" arrivalPos="90.46" arrivalSpeed="30.47" duration="113.00" routeLength="1314.99" waitingTime="0.00" waitingCount="0" stopTime="0.00" timeLoss="39.87" rerouteNo="0" devices="tripinfo_26" vType="DEFAULT_VEHTYPE" speedFactor="1.12" vaporized=""/>
    <tripinfo id="27" depart="53.00" departLane="E0_0" departPos="5.10" departSpeed="1.00" departDelay="18.00" arrival="165.00" arrivalLane="E3_0" arrivalPos="90.46" arrivalSpeed="29.82" duration="112.00" routeLength="1314.99" waitingTime="0.00" waitingCount="0" stopTime="0.00" timeLoss="28.95" rerouteNo="0" devices="tripinfo_27" vType="DEFAULT_VEHTYPE" speedFactor="0.99" vaporized=""/>
    <tripinfo id="28" depart="56.00" departLane="E0_0" departPos="5.10" departSpeed="0.76" departDelay="21.00" arrival="166.00" arrivalLane="E3_0" arrivalPos="90.46" arrivalSpeed="28.86" duration="110.00" routeLength="1314.99" waitingTime="0.00" waitingCount="0" stopTime="0.00" timeLoss="25.64" rerouteNo="0" devices="tripinfo_28" vType="DEFAULT_VEHTYPE" speedFactor="0.97" vaporized=""/>
    <tripinfo id="29" depart="60.00" departLane="E0_0" departPos="5.10" departSpeed="5.67" departDelay="23.00" arrival="168.00" arrivalLane="E3_0" arrivalPos="90.46" arrivalSpeed="29.36" duration="108.00" routeLength="1314.99" waitingTime="0.00" waitingCount="0" stopTime="0.00" timeLoss="27.05" rerouteNo="0" devices="tripinfo_29" vType="DEFAULT_VEHTYPE" speedFactor="1.02" vaporized=""/>
    <tripinfo id="30" depart="62.00" departLane="E0_0" departPos="5.10" departSpeed="6.48" departDelay="25.00" arrival="172.00" arrivalLane="E3_0" arrivalPos="90.46" arrivalSpeed="27.62" duration="110.00" routeLength="1314.99" waitingTime="0.00" waitingCount="0" stopTime="0.00" timeLoss="22.10" rerouteNo="0" devices="tripinfo_30" vType="DEFAULT_VEHTYPE" speedFactor="0.94" vaporized=""/>
    <tripinfo id="31" depart="64.00" departLane="E0_0" departPos="5.10" departSpeed="7.47" departDelay="27.00" arrival="173.00" arrivalLane="E3_0" arrivalPos="90.46" arrivalSpeed="28.94" duration="109.00" routeLength="1314.99" waitingTime="0.00" waitingCount="0" stopTime="0.00" timeLoss="34.44" rerouteNo="0" devices="tripinfo_31" vType="DEFAULT_VEHTYPE" speedFactor="1.10" vaporized=""/>
    <tripinfo id="32" depart="66.00" departLane="E0_0" departPos="5.10" departSpeed="8.00" departDelay="28.00" arrival="186.00" arrivalLane="E3_0" arrivalPos="90.46" arrivalSpeed="24.51" duration="120.00" routeLength="1314.99" waitingTime="0.00" waitingCount="0" stopTime="0.00" timeLoss="21.48" rerouteNo="0" devices="tripinfo_32" vType="DEFAULT_VEHTYPE" speedFactor="0.83" vaporized=""/>
    <tripinfo id="33" depart="68.00" departLane="E0_0" departPos="5.10" departSpeed="7.15" departDelay="30.00" arrival="187.00" arrivalLane="E3_0" arrivalPos="90.46" arrivalSpeed="26.42" duration="119.00" routeLength="1314.99" waitingTime="0.00" waitingCount="0" stopTime="0.00" timeLoss="39.50" rerouteNo="0" devices="tripinfo_33" vType="DEFAULT_VEHTYPE" speedFactor="1.03" vaporized=""/>
    <tripinfo id="34" depart="70.00" departLane="E0_0" departPos="5.10" departSpeed="4.63" departDelay="32.00" arrival="189.00" arrivalLane="E3_0" arrivalPos="90.46" arrivalSpeed="28.10" duration="119.00" routeLength="1314.99" waitingTime="0.00" waitingCount="0" stopTime="0.00" timeLoss="41.64" rerouteNo="0" devices="tripinfo_34" vType="DEFAULT_VEHTYPE" speedFactor="1.07" vaporized=""/>
    <tripinfo id="35" depart="72.00" departLane="E0_0" departPos="5.10" departSpeed="3.39" departDelay="33.00" arrival="190.00" arrivalLane="E3_0" arrivalPos="90.46" arrivalSpeed="28.26" duration="118.00" routeLength="1314.99" waitingTime="0.00" waitingCount="0" stopTime="0.00" timeLoss="38.63" rerouteNo="0" devices="tripinfo_35" vType="DEFAULT_VEHTYPE" speedFactor="1.04" vaporized=""/>
    <tripinfo id="36" depart="75.00" departLane="E0_0" departPos="5.10" departSpeed="3.29" departDelay="35.00" arrival="204.00" arrivalLane="E3_0" arrivalPos="90.46" arrivalSpeed="21.91" duration="129.00" routeLength="1314.99" waitingTime="0.00" waitingCount="0" stopTime="0.00" timeLoss="22.10" rerouteNo="0" devices="tripinfo_36" vType="DEFAULT_VEHTYPE" speedFactor="0.77" vaporized=""/>
    <tripinfo id="37" depart="78.00" departLane="E0_0" departPos="5.10" departSpeed="5.24" departDelay="38.00" arrival="205.00" arrivalLane="E3_0" arrivalPos="90.46" arrivalSpeed="25.21" duration="127.00" routeLength="1314.99" waitingTime="0.00" waitingCount="0" stopTime="0.00" timeLoss="35.78" rerouteNo="0" devices="tripinfo_37" vType="DEFAULT_VEHTYPE" speedFactor="0.90" vaporized=""/>
    <tripinfo id="38" depart="80.00" departLane="E0_0" departPos="5.10" departSpeed="4.00" departDelay="39.00" arrival="207.00" arrivalLane="E3_0" arrivalPos="90.46" arrivalSpeed="26.57" duration="127.00" routeLength="1314.99" waitingTime="0.00" waitingCount="0" stopTime="0.00" timeLoss="46.11" rerouteNo="0" devices="tripinfo_38" vType="DEFAULT_VEHTYPE" speedFactor="1.02" vaporized=""/>
    <tripinfo id="39" depart="83.00" departLane="E0_0" departPos="5.10" departSpeed="2.36" departDelay="38.00" arrival="208.00" arrivalLane="E3_0" arrivalPos="90.46" arrivalSpeed="25.50" duration="125.00" routeLength="1314.99" waitingTime="0.00" waitingCount="0" stopTime="0.00" timeLoss="31.58" rerouteNo="0" devices="tripinfo_39" vType="DEFAULT_VEHTYPE" speedFactor="0.88" vaporized=""/>
    <tripinfo id="40" depart="86.00" departLane="E0_0" departPos="5.10" departSpeed="5.34" departDelay="40.00" arrival="210.00" arrivalLane="E3_0" arrivalPos="90.46" arrivalSpeed="28.04" duration="124.00" routeLength="1314.99" waitingTime="0.00" waitingCount="0" stopTime="0.00" timeLoss="46.27" rerouteNo="0" devices="tripinfo_40" vType="DEFAULT_VEHTYPE" speedFactor="1.06" vaporized=""/>
    <tripinfo id="41" depart="88.00" departLane="E0_0" departPos="5.10" departSpeed="4.49" departDelay="42.00" arrival="211.00" arrivalLane="E3_0" arrivalPos="90.46" arrivalSpeed="27.41" duration="123.00" routeLength="1314.99" waitingTime="0.00" waitingCount="0" stopTime="0.00" timeLoss="52.53" rerouteNo="0" devices="tripinfo_41" vType="DEFAULT_VEHTYPE" speedFactor="1.17" vaporized=""/>
    <tripinfo id="42" depart="90.00" departLane="E0_0" departPos="5.10" departSpeed="4.18" departDelay="44.00" arrival="212.00" arrivalLane="E3_0" arrivalPos="90.46" arrivalSpeed="27.04" duration="122.00" routeLength="1314.99" waitingTime="0.00" waitingCount="0" stopTime="0.00" timeLoss="43.84" rerouteNo="0" devices="tripinfo_42" vType="DEFAULT_VEHTYPE" speedFactor="1.05" vaporized=""/>
    <tripinfo id="43" depart="92.00" departLane="E0_0" departPos="5.10" departSpeed="4.18" departDelay="42.00" arrival="214.00" arrivalLane="E3_0" arrivalPos="90.46" arrivalSpeed="29.51" duration="122.00" routeLength="1314.99" waitingTime="0.00" waitingCount="0" stopTime="0.00" timeLoss="40.02" rerouteNo="0" devices="tripinfo_43" vType="DEFAULT_VEHTYPE" speedFactor="1.00" vaporized=""/>
    <tripinfo id="44" depart="94.00" departLane="E0_0" departPos="5.10" departSpeed="1.34" departDelay="43.00" arrival="215.00" arrivalLane="E3_0" arrivalPos="90.46" arrivalSpeed="29.87" duration="121.00" routeLength="1314.99" waitingTime="0.00" waitingCount="0" stopTime="0.00" timeLoss="46.29" rerouteNo="0" devices="tripinfo_44" vType="DEFAULT_VEHTYPE" speedFactor="1.10" vaporized=""/>
    <tripinfo id="45" depart="98.00" departLane="E0_0" departPos="5.10" departSpeed="5.98" departDelay="47.00" arrival="218.00" arrivalLane="E3_0" arrivalPos="90.46" arrivalSpeed="26.59" duration="120.00" routeLength="1314.99" waitingTime="0.00" waitingCount="0" stopTime="0.00" timeLoss="28.78" rerouteNo="0" devices="tripinfo_45" vType="DEFAULT_VEHTYPE" speedFactor="0.90" vaporized=""/>
    <tripinfo id="46" depart="100.00" departLane="E0_0" departPos="5.10" departSpeed="5.49" departDelay="48.00" arrival="220.00" arrivalLane="E3_0" arrivalPos="90.46" arrivalSpeed="28.56" duration="120.00" routeLength="1314.99" waitingTime="0.00" waitingCount="0" stopTime="0.00" timeLoss="33.98" rerouteNo="0" devices="tripinfo_46" vType="DEFAULT_VEHTYPE" speedFactor="0.96" vaporized=""/>
    <tripinfo id="47" depart="102.00" departLane="E0_0" departPos="5.10" departSpeed="3.25" departDelay="50.00" arrival="221.00" arrivalLane="E3_0" arrivalPos="90.46" arrivalSpeed="29.65" duration="119.00" routeLength="1314.99" waitingTime="0.00" waitingCount="0" stopTime="0.00" timeLoss="38.42" rerouteNo="0" devices="tripinfo_47" vType="DEFAULT_VEHTYPE" speedFactor="1.02" vaporized=""/>
    <tripinfo id="48" depart="105.00" departLane="E0_0" departPos="5.10" departSpeed="5.68" departDelay="52.00" arrival="222.00" arrivalLane="E3_0" arrivalPos="90.46" arrivalSpeed="29.33" duration="117.00" routeLength="1314.99" waitingTime="0.00" waitingCount="0" stopTime="0.00" timeLoss="34.60" rerouteNo="0" devices="tripinfo_48" vType="DEFAULT_VEHTYPE" speedFactor="1.00" vaporized=""/>
    <tripinfo id="49" depart="107.00" departLane="E0_0" departPos="5.10" departSpeed="6.20" departDelay="51.00" arrival="224.00" arrivalLane="E3_0" arrivalPos="90.46" arrivalSpeed="32.00" duration="117.00" routeLength="1314.99" waitingTime="0.00" waitingCount="0" stopTime="0.00" timeLoss="43.16" rerouteNo="0" devices="tripinfo_49" vType="DEFAULT_VEHTYPE" speedFactor="1.12" vaporized=""/>
    <tripinfo id="50" depart="109.00" departLane="E0_0" departPos="5.10" departSpeed="5.90" departDelay="51.00" arrival="225.00" arrivalLane="E3_0" arrivalPos="90.46" arrivalSpeed="29.43" duration="116.00" routeLength="1314.99" waitingTime="0.00" waitingCount="0" stopTime="0.00" timeLoss="34.05" rerouteNo="0" devices="tripinfo_50" vType="DEFAULT_VEHTYPE" speedFactor="1.00" vaporized=""/>
    <tripinfo id="51" depart="111.00" departLane="E0_0" departPos="5.10" departSpeed="1.99" departDelay="53.00" arrival="228.00" arrivalLane="E3_0" arrivalPos="90.46" arrivalSpeed="29.26" duration="117.00" routeLength="1314.99" waitingTime="0.00" waitingCount="0" stopTime="0.00" timeLoss="33.01" rerouteNo="0" devices="tripinfo_51" vType="DEFAULT_VEHTYPE" speedFactor="0.99" vaporized=""/>
    <tripinfo id="52" depart="114.00" departLane="E0_0" departPos="5.10" departSpeed="4.59" departDelay="55.00" arrival="230.00" arrivalLane="E3_0" arrivalPos="90.46" arrivalSpeed="27.91" duration="116.00" routeLength="1314.99" waitingTime="0.00" waitingCount="0" stopTime="0.00" timeLoss="30.53" rerouteNo="0" devices="tripinfo_52" vType="DEFAULT_VEHTYPE" speedFactor="0.96" vaporized=""/>
    <tripinfo id="53" depart="116.00" departLane="E0_0" departPos="5.10" departSpeed="3.38" departDelay="57.00" arrival="234.00" arrivalLane="E3_0" arrivalPos="90.46" arrivalSpeed="26.07" duration="118.00" routeLength="1314.99" waitingTime="0.00" waitingCount="0" stopTime="0.00" timeLoss="27.74" rerouteNo="0" devices="tripinfo_53" vType="DEFAULT_VEHTYPE" speedFactor="0.91" vaporized=""/>
    <tripinfo id="54" depart="119.00" departLane="E0_0" departPos="5.10" departSpeed="6.41" departDelay="59.00" arrival="236.00" arrivalLane="E3_0" arrivalPos="90.46" arrivalSpeed="27.97" duration="117.00" routeLength="1314.99" waitingTime="0.00" waitingCount="0" stopTime="0.00" timeLoss="30.01" rerouteNo="0" devices="tripinfo_54" vType="DEFAULT_VEHTYPE" speedFactor="0.95" vaporized=""/>
    <tripinfo id="55" depart="121.00" departLane="E0_0" departPos="5.10" departSpeed="3.94" departDelay="61.00" arrival="237.00" arrivalLane="E3_0" arrivalPos="90.46" arrivalSpeed="29.84" duration="116.00" routeLength="1314.99" waitingTime="0.00" waitingCount="0" stopTime="0.00" timeLoss="35.70" rerouteNo="0" devices="tripinfo_55" vType="DEFAULT_VEHTYPE" speedFactor="1.02" vaporized=""/>
    <tripinfo id="56" depart="124.00" departLane="E0_0" departPos="5.10" departSpeed="3.88" departDelay="64.00" arrival="240.00" arrivalLane="E3_0" arrivalPos="90.46" arrivalSpeed="26.72" duration="116.00" routeLength="1314.99" waitingTime="0.00" waitingCount="0" stopTime="0.00" timeLoss="27.53" rerouteNo="0" devices="tripinfo_56" vType="DEFAULT_VEHTYPE" speedFactor="0.93" vaporized=""/>
    <tripinfo id="57" depart="126.00" departLane="E0_0" departPos="5.10" departSpeed="0.98" departDelay="65.00" arrival="242.00" arrivalLane="E3_0" arrivalPos="90.46" arrivalSpeed="30.73" duration="116.00" routeLength="1314.99" waitingTime="0.00" waitingCount="0" stopTime="0.00" timeLoss="37.59" rerouteNo="0" devices="tripinfo_57" vType="DEFAULT_VEHTYPE" speedFactor="1.06" vaporized=""/>
    <tripinfo id="58" depart="129.00" departLane="E0_0" departPos="5.10" departSpeed="0.82" departDelay="68.00" arrival="243.00" arrivalLane="E3_0" arrivalPos="90.46" arrivalSpeed="30.51" duration="114.00" routeLength="1314.99" waitingTime="0.00" waitingCount="0" stopTime="0.00" timeLoss="40.25" rerouteNo="0" devices="tripinfo_58" vType="DEFAULT_VEHTYPE" speedFactor="1.12" vaporized=""/>
    <tripinfo id="59" depart="132.00" departLane="E0_0" departPos="5.10" departSpeed="1.22" departDelay="69.00" arrival="244.00" arrivalLane="E3_0" arrivalPos="90.46" arrivalSpeed="30.20" duration="112.00" routeLength="1314.99" waitingTime="0.00" waitingCount="0" stopTime="0.00" timeLoss="32.41" rerouteNo="0" devices="tripinfo_59" vType="DEFAULT_VEHTYPE" speedFactor="1.03" vaporized=""/>
    <tripinfo id="60" depart="136.00" departLane="E0_0" departPos="5.10" departSpeed="5.73" departDelay="73.00" arrival="249.00" arrivalLane="E3_0" arrivalPos="90.46" arrivalSpeed="26.58" duration="113.00" routeLength="1314.99" waitingTime="0.00" waitingCount="0" stopTime="0.00" timeLoss="23.02" rerouteNo="0" devices="tripinfo_60" vType="DEFAULT_VEHTYPE" speedFactor="0.92" vaporized=""/>
    <tripinfo id="61" depart="138.00" departLane="E0_0" departPos="5.10" departSpeed="6.29" departDelay="74.00" arrival="250.00" arrivalLane="E3_0" arrivalPos="90.46" arrivalSpeed="28.30" duration="112.00" routeLength="1314.99" waitingTime="0.00" waitingCount="0" stopTime="0.00" timeLoss="36.29" rerouteNo="0" devices="tripinfo_61" vType="DEFAULT_VEHTYPE" speedFactor="1.09" vaporized=""/>
    <tripinfo id="62" depart="140.00" departLane="E0_0" departPos="5.10" departSpeed="5.12" departDelay="76.00" arrival="255.00" arrivalLane="E3_0" arrivalPos="90.46" arrivalSpeed="26.28" duration="115.00" routeLength="1314.99" waitingTime="0.00" waitingCount="0" stopTime="0.00" timeLoss="23.84" rerouteNo="0" devices="tripinfo_62" vType="DEFAULT_VEHTYPE" speedFactor="0.90" vaporized=""/>
    <tripinfo id="63" depart="142.00" departLane="E0_0" departPos="5.10" departSpeed="4.52" departDelay="78.00" arrival="257.00" arrivalLane="E3_0" arrivalPos="90.46" arrivalSpeed="29.93" duration="115.00" routeLength="1314.99" waitingTime="0.00" waitingCount="0" stopTime="0.00" timeLoss="33.86" rerouteNo="0" devices="tripinfo_63" vType="DEFAULT_VEHTYPE" speedFactor="1.02" vaporized=""/>
    <tripinfo id="64" depart="145.00" departLane="E0_0" departPos="5.10" departSpeed="2.56" departDelay="80.00" arrival="258.00" arrivalLane="E3_0" arrivalPos="90.46" arrivalSpeed="30.56" duration="113.00" routeLength="1314.99" waitingTime="0.00" waitingCount="0" stopTime="0.00" timeLoss="36.93" rerouteNo="0" devices="tripinfo_64" vType="DEFAULT_VEHTYPE" speedFactor="1.08" vaporized=""/>
    <tripinfo id="65" depart="148.00" departLane="E0_0" departPos="5.10" departSpeed="2.25" departDelay="80.00" arrival="260.00" arrivalLane="E3_0" arrivalPos="90.46" arrivalSpeed="28.72" duration="112.00" routeLength="1314.99" waitingTime="0.00" waitingCount="0" stopTime="0.00" timeLoss="27.34" rerouteNo="0" devices="tripinfo_65" vType="DEFAULT_VEHTYPE" speedFactor="0.98" vaporized=""/>
    <tripinfo id="66" depart="151.00" departLane="E0_0" departPos="5.10" departSpeed="4.94" departDelay="78.00" arrival="261.00" arrivalLane="E3_0" arrivalPos="90.46" arrivalSpeed="28.67" duration="110.00" routeLength="1314.99" waitingTime="0.00" waitingCount="0" stopTime="0.00" timeLoss="26.55" rerouteNo="0" devices="tripinfo_66" vType="DEFAULT_VEHTYPE" speedFactor="0.98" vaporized=""/>
    <tripinfo id="67" depart="153.00" departLane="E0_0" departPos="5.10" departSpeed="4.06" departDelay="77.00" arrival="263.00" arrivalLane="E3_0" arrivalPos="90.46" arrivalSpeed="29.00" duration="110.00" routeLength="1314.99" waitingTime="0.00" waitingCount="0" stopTime="0.00" timeLoss="28.35" rerouteNo="0" devices="tripinfo_67" vType="DEFAULT_VEHTYPE" speedFactor="1.01" vaporized=""/>
    <tripinfo id="68" depart="156.00" departLane="E0_0" departPos="5.10" departSpeed="6.32" departDelay="80.00" arrival="268.00" arrivalLane="E3_0" arrivalPos="90.46" arrivalSpeed="27.21" duration="112.00" routeLength="1314.99" waitingTime="0.00" waitingCount="0" stopTime="0.00" timeLoss="24.55" rerouteNo="0" devices="tripinfo_68" vType="DEFAULT_VEHTYPE" speedFactor="0.94" vaporized=""/>
    <tripinfo id="69" depart="158.00" departLane="E0_0" departPos="5.10" departSpeed="4.03" departDelay="82.00" arrival="282.00" arrivalLane="E3_0" arrivalPos="90.46" arrivalSpeed="23.88" duration="124.00" routeLength="1314.99" waitingTime="0.00" waitingCount="0" stopTime="0.00" timeLoss="25.71" rerouteNo="0" devices="tripinfo_69" vType="DEFAULT_VEHTYPE" speedFactor="0.83" vaporized=""/>
    <tripinfo id="70" depart="160.00" departLane="E0_0" departPos="5.10" departSpeed="0.09" departDelay="81.00" arrival="283.00" arrivalLane="E3_0" arrivalPos="90.46" arrivalSpeed="25.96" duration="123.00" routeLength="1314.99" waitingTime="1.00" waitingCount="1" stopTime="0.00" timeLoss="45.32" rerouteNo="0" devices="tripinfo_70" vType="DEFAULT_VEHTYPE" speedFactor="1.05" vaporized=""/>
    <tripinfo id="71" depart="164.00" departLane="E0_0" departPos="5.10" departSpeed="2.65" departDelay="84.00" arrival="285.00" arrivalLane="E3_0" arrivalPos="90.46" arrivalSpeed="27.50" duration="121.00" routeLength="1314.99" waitingTime="0.00" waitingCount="0" stopTime="0.00" timeLoss="43.22" rerouteNo="0" devices="tripinfo_71" vType="DEFAULT_VEHTYPE" speedFactor="1.06" vaporized=""/>
    <tripinfo id="72" depart="167.00" departLane="E0_0" departPos="5.10" departSpeed="3.61" departDelay="84.00" arrival="288.00" arrivalLane="E3_0" arrivalPos="90.46" arrivalSpeed="24.64" duration="121.00" routeLength="1314.99" waitingTime="0.00" waitingCount="0" stopTime="0.00" timeLoss="25.27" rerouteNo="0" devices="tripinfo_72" vType="DEFAULT_VEHTYPE" speedFactor="0.86" vaporized=""/>
    <tripinfo id="73" depart="170.00" departLane="E0_0" departPos="5.10" departSpeed="5.97" departDelay="83.00" arrival="289.00" arrivalLane="E3_0" arrivalPos="90.46" arrivalSpeed="26.62" duration="119.00" routeLength="1314.99" waitingTime="0.00" waitingCount="0" stopTime="0.00" timeLoss="28.27" rerouteNo="0" devices="tripinfo_73" vType="DEFAULT_VEHTYPE" speedFactor="0.91" vaporized=""/>