<?xml version="1.0" encoding="UTF-8"?>

<!-- generated on 2023-04-30 00:54:51 by Eclipse SUMO sumo Version 1.16.0
<configuration xmlns:xsi="http://www.w3.org/2001/XMLSchema-instance" xsi:noNamespaceSchemaLocation="http://sumo.dlr.de/xsd/sumoConfiguration.xsd">

    <input>
        <net-file value="C:\Users\Local_Man\Desktop\Stolen%20Music\school%20stuff%20for%20college\Semester%2015%20(UH%20Graduate%20School)\COSC%206364%20Nikolaos\SUMO_Project\COSC6364_Project\configurations\maps\Braess_Homebrew_fixed1.net.xml"/>
        <route-files value="./configurations/Rounds/Braess_Homebrew_fixed1.net.xml-test-4/Macroscopic_DUE/019/Trips_File_019.rou.xml"/>
    </input>

    <output>
        <summary-output value="./configurations/Rounds/Braess_Homebrew_fixed1.net.xml-test-4/Macroscopic_DUE/019/summary.xml"/>
        <tripinfo-output value="./configurations/Rounds/Braess_Homebrew_fixed1.net.xml-test-4/Macroscopic_DUE/019/trips.trips.xml"/>
        <statistic-output value="./configurations/Rounds/Braess_Homebrew_fixed1.net.xml-test-4/Macroscopic_DUE/019/stats_output.xml"/>
    </output>

    <time>
        <begin value="0"/>
    </time>

    <report>
        <log value="./configurations/Rounds/Braess_Homebrew_fixed1.net.xml-test-4/Macroscopic_DUE/019/log.sumo.log"/>
        <no-step-log value="true"/>
    </report>

    <gui_only>
        <quit-on-end value="true"/>
    </gui_only>

</configuration>
-->

<tripinfos xmlns:xsi="http://www.w3.org/2001/XMLSchema-instance" xsi:noNamespaceSchemaLocation="http://sumo.dlr.de/xsd/tripinfo_file.xsd">
    <tripinfo id="2" depart="4.00" departLane="E0_0" departPos="5.10" departSpeed="19.50" departDelay="0.00" arrival="97.00" arrivalLane="E3_0" arrivalPos="90.46" arrivalSpeed="28.39" duration="93.00" routeLength="1314.99" waitingTime="0.00" waitingCount="0" stopTime="0.00" timeLoss="9.23" rerouteNo="0" devices="tripinfo_2" vType="DEFAULT_VEHTYPE" speedFactor="0.98" vaporized=""/>
    <tripinfo id="4" depart="10.00" departLane="E0_0" departPos="5.10" departSpeed="24.01" departDelay="0.00" arrival="99.00" arrivalLane="E3_0" arrivalPos="90.46" arrivalSpeed="32.02" duration="89.00" routeLength="1314.99" waitingTime="0.00" waitingCount="0" stopTime="0.00" timeLoss="20.16" rerouteNo="0" devices="tripinfo_4" vType="DEFAULT_VEHTYPE" speedFactor="1.20" vaporized=""/>
    <tripinfo id="5" depart="11.00" departLane="E0_0" departPos="5.10" departSpeed="20.92" departDelay="1.00" arrival="102.00" arrivalLane="E3_0" arrivalPos="90.46" arrivalSpeed="31.12" duration="91.00" routeLength="1314.99" waitingTime="0.00" waitingCount="0" stopTime="0.00" timeLoss="11.86" rerouteNo="0" devices="tripinfo_5" vType="DEFAULT_VEHTYPE" speedFactor="1.05" vaporized=""/>
    <tripinfo id="7" depart="13.00" departLane="E0_0" departPos="5.10" departSpeed="16.81" departDelay="2.00" arrival="114.00" arrivalLane="E3_0" arrivalPos="90.46" arrivalSpeed="27.34" duration="101.00" routeLength="1314.99" waitingTime="0.00" waitingCount="0" stopTime="0.00" timeLoss="12.90" rerouteNo="0" devices="tripinfo_7" vType="DEFAULT_VEHTYPE" speedFactor="0.94" vaporized=""/>
    <tripinfo id="9" depart="15.00" departLane="E0_0" departPos="5.10" departSpeed="10.39" departDelay="1.00" arrival="115.00" arrivalLane="E3_0" arrivalPos="90.46" arrivalSpeed="29.77" duration="100.00" routeLength="1314.99" waitingTime="0.00" waitingCount="0" stopTime="0.00" timeLoss="24.64" rerouteNo="0" devices="tripinfo_9" vType="DEFAULT_VEHTYPE" speedFactor="1.09" vaporized=""/>
    <tripinfo id="10" depart="17.00" departLane="E0_0" departPos="5.10" departSpeed="11.85" departDelay="0.00" arrival="123.00" arrivalLane="E3_0" arrivalPos="90.46" arrivalSpeed="26.90" duration="106.00" routeLength="1314.99" waitingTime="0.00" waitingCount="0" stopTime="0.00" timeLoss="16.95" rerouteNo="0" devices="tripinfo_10" vType="DEFAULT_VEHTYPE" speedFactor="0.92" vaporized=""/>
    <tripinfo id="13" depart="21.00" departLane="E0_0" departPos="5.10" departSpeed="4.81" departDelay="2.00" arrival="130.00" arrivalLane="E3_0" arrivalPos="90.46" arrivalSpeed="26.95" duration="109.00" routeLength="1314.99" waitingTime="0.00" waitingCount="0" stopTime="0.00" timeLoss="19.93" rerouteNo="0" devices="tripinfo_13" vType="DEFAULT_VEHTYPE" speedFactor="0.93" vaporized=""/>
    <tripinfo id="15" depart="25.00" departLane="E0_0" departPos="5.10" departSpeed="3.88" departDelay="5.00" arrival="135.00" arrivalLane="E3_0" arrivalPos="90.46" arrivalSpeed="27.12" duration="110.00" routeLength="1314.99" waitingTime="0.00" waitingCount="0" stopTime="0.00" timeLoss="21.52" rerouteNo="0" devices="tripinfo_15" vType="DEFAULT_VEHTYPE" speedFactor="0.94" vaporized=""/>
    <tripinfo id="16" depart="27.00" departLane="E0_0" departPos="5.10" departSpeed="4.47" departDelay="7.00" arrival="136.00" arrivalLane="E3_0" arrivalPos="90.46" arrivalSpeed="29.34" duration="109.00" routeLength="1314.99" waitingTime="0.00" waitingCount="0" stopTime="0.00" timeLoss="32.80" rerouteNo="0" devices="tripinfo_16" vType="DEFAULT_VEHTYPE" speedFactor="1.08" vaporized=""/>
    <tripinfo id="17" depart="29.00" departLane="E0_0" departPos="5.10" departSpeed="1.80" departDelay="7.00" arrival="137.00" arrivalLane="E3_0" arrivalPos="90.46" arrivalSpeed="28.97" duration="108.00" routeLength="1314.99" waitingTime="0.00" waitingCount="0" stopTime="0.00" timeLoss="26.87" rerouteNo="0" devices="tripinfo_17" vType="DEFAULT_VEHTYPE" speedFactor="1.01" vaporized=""/>
    <tripinfo id="18" depart="32.00" departLane="E0_0" departPos="5.10" departSpeed="4.95" departDelay="9.00" arrival="139.00" arrivalLane="E3_0" arrivalPos="90.46" arrivalSpeed="30.15" duration="107.00" routeLength="1314.99" waitingTime="0.00" waitingCount="0" stopTime="0.00" timeLoss="26.78" rerouteNo="0" devices="tripinfo_18" vType="DEFAULT_VEHTYPE" speedFactor="1.03" vaporized=""/>
    <tripinfo id="19" depart="34.00" departLane="E0_0" departPos="5.10" departSpeed="4.95" departDelay="10.00" arrival="149.00" arrivalLane="E3_0" arrivalPos="90.46" arrivalSpeed="25.49" duration="115.00" routeLength="1314.99" waitingTime="0.00" waitingCount="0" stopTime="0.00" timeLoss="22.53" rerouteNo="0" devices="tripinfo_19" vType="DEFAULT_VEHTYPE" speedFactor="0.89" vaporized=""/>
    <tripinfo id="26" depart="51.00" departLane="E0_0" departPos="5.10" departSpeed="6.35" departDelay="19.00" arrival="150.00" arrivalLane="E3_0" arrivalPos="90.46" arrivalSpeed="28.88" duration="99.00" routeLength="1314.99" waitingTime="0.00" waitingCount="0" stopTime="0.00" timeLoss="26.06" rerouteNo="0" devices="tripinfo_26" vType="DEFAULT_VEHTYPE" speedFactor="1.12" vaporized=""/>
    <tripinfo id="29" depart="57.00" departLane="E0_0" departPos="5.10" departSpeed="1.20" departDelay="24.00" arrival="158.00" arrivalLane="E3_0" arrivalPos="90.46" arrivalSpeed="29.64" duration="101.00" routeLength="1314.99" waitingTime="0.00" waitingCount="0" stopTime="0.00" timeLoss="20.06" rerouteNo="0" devices="tripinfo_29" vType="DEFAULT_VEHTYPE" speedFactor="1.02" vaporized=""/>
    <tripinfo id="3" depart="5.00" departLane="E0_0" departPos="5.10" departSpeed="16.96" departDelay="1.00" arrival="168.00" arrivalLane="E3_0" arrivalPos="90.46" arrivalSpeed="26.07" duration="163.00" routeLength="1317.38" waitingTime="60.00" waitingCount="1" stopTime="0.00" timeLoss="83.45" rerouteNo="0" devices="tripinfo_3" vType="DEFAULT_VEHTYPE" speedFactor="1.08" vaporized=""/>
    <tripinfo id="30" depart="61.00" departLane="E0_0" departPos="5.10" departSpeed="6.65" departDelay="27.00" arrival="169.00" arrivalLane="E3_0" arrivalPos="90.46" arrivalSpeed="26.59" duration="108.00" routeLength="1314.99" waitingTime="0.00" waitingCount="0" stopTime="0.00" timeLoss="20.70" rerouteNo="0" devices="tripinfo_30" vType="DEFAULT_VEHTYPE" speedFactor="0.94" vaporized=""/>
    <tripinfo id="31" depart="63.00" departLane="E0_0" departPos="5.10" departSpeed="7.26" departDelay="29.00" arrival="171.00" arrivalLane="E3_0" arrivalPos="90.46" arrivalSpeed="28.41" duration="108.00" routeLength="1314.99" waitingTime="0.00" waitingCount="0" stopTime="0.00" timeLoss="33.01" rerouteNo="0" devices="tripinfo_31" vType="DEFAULT_VEHTYPE" speedFactor="1.10" vaporized=""/>
    <tripinfo id="32" depart="65.00" departLane="E0_0" departPos="5.10" departSpeed="5.98" departDelay="30.00" arrival="183.00" arrivalLane="E3_0" arrivalPos="90.46" arrivalSpeed="23.77" duration="118.00" routeLength="1314.99" waitingTime="0.00" waitingCount="0" stopTime="0.00" timeLoss="19.92" rerouteNo="0" devices="tripinfo_32" vType="DEFAULT_VEHTYPE" speedFactor="0.83" vaporized=""/>
    <tripinfo id="34" depart="70.00" departLane="E0_0" departPos="5.10" departSpeed="2.34" departDelay="34.00" arrival="185.00" arrivalLane="E3_0" arrivalPos="90.46" arrivalSpeed="27.47" duration="115.00" routeLength="1314.99" waitingTime="0.00" waitingCount="0" stopTime="0.00" timeLoss="37.44" rerouteNo="0" devices="tripinfo_34" vType="DEFAULT_VEHTYPE" speedFactor="1.07" vaporized=""/>
    <tripinfo id="6" depart="12.00" departLane="E0_0" departPos="5.10" departSpeed="18.89" departDelay="2.00" arrival="194.00" arrivalLane="E3_0" arrivalPos="90.46" arrivalSpeed="25.99" duration="182.00" routeLength="1317.38" waitingTime="75.00" waitingCount="2" stopTime="0.00" timeLoss="102.05" rerouteNo="0" devices="tripinfo_6" vType="DEFAULT_VEHTYPE" speedFactor="1.08" vaporized=""/>
    <tripinfo id="36" depart="75.00" departLane="E0_0" departPos="5.10" departSpeed="7.12" departDelay="35.00" arrival="201.00" arrivalLane="E3_0" arrivalPos="90.46" arrivalSpeed="22.98" duration="126.00" routeLength="1314.99" waitingTime="0.00" waitingCount="0" stopTime="0.00" timeLoss="19.41" rerouteNo="0" devices="tripinfo_36" vType="DEFAULT_VEHTYPE" speedFactor="0.77" vaporized=""/>
    <tripinfo id="38" depart="79.00" departLane="E0_0" departPos="5.10" departSpeed="8.47" departDelay="33.00" arrival="202.00" arrivalLane="E3_0" arrivalPos="90.46" arrivalSpeed="25.36" duration="123.00" routeLength="1314.99" waitingTime="0.00" waitingCount="0" stopTime="0.00" timeLoss="42.87" rerouteNo="0" devices="tripinfo_38" vType="DEFAULT_VEHTYPE" speedFactor="1.02" vaporized=""/>
    <tripinfo id="39" depart="80.00" departLane="E0_0" departPos="5.10" departSpeed="3.50" departDelay="34.00" arrival="204.00" arrivalLane="E3_0" arrivalPos="90.46" arrivalSpeed="25.42" duration="124.00" routeLength="1314.99" waitingTime="0.00" waitingCount="0" stopTime="0.00" timeLoss="30.12" rerouteNo="0" devices="tripinfo_39" vType="DEFAULT_VEHTYPE" speedFactor="0.88" vaporized=""/>
    <tripinfo id="42" depart="87.00" departLane="E0_0" departPos="5.10" departSpeed="4.99" departDelay="34.00" arrival="205.00" arrivalLane="E3_0" arrivalPos="90.46" arrivalSpeed="26.34" duration="118.00" routeLength="1314.99" waitingTime="0.00" waitingCount="0" stopTime="0.00" timeLoss="39.89" rerouteNo="0" devices="tripinfo_42" vType="DEFAULT_VEHTYPE" speedFactor="1.05" vaporized=""/>
    <tripinfo id="43" depart="89.00" departLane="E0_0" departPos="5.10" departSpeed="4.78" departDelay="34.00" arrival="207.00" arrivalLane="E3_0" arrivalPos="90.46" arrivalSpeed="28.76" duration="118.00" routeLength="1314.99" waitingTime="0.00" waitingCount="0" stopTime="0.00" timeLoss="35.66" rerouteNo="0" devices="tripinfo_43" vType="DEFAULT_VEHTYPE" speedFactor="1.00" vaporized=""/>
    <tripinfo id="44" depart="91.00" departLane="E0_0" departPos="5.10" departSpeed="0.51" departDelay="36.00" arrival="208.00" arrivalLane="E3_0" arrivalPos="90.46" arrivalSpeed="27.94" duration="117.00" routeLength="1314.99" waitingTime="0.00" waitingCount="0" stopTime="0.00" timeLoss="42.41" rerouteNo="0" devices="tripinfo_44" vType="DEFAULT_VEHTYPE" speedFactor="1.10" vaporized=""/>
    <tripinfo id="45" depart="95.00" departLane="E0_0" departPos="5.10" departSpeed="3.98" departDelay="39.00" arrival="210.00" arrivalLane="E3_0" arrivalPos="90.46" arrivalSpeed="25.84" duration="115.00" routeLength="1314.99" waitingTime="0.00" waitingCount="0" stopTime="0.00" timeLoss="22.80" rerouteNo="0" devices="tripinfo_45" vType="DEFAULT_VEHTYPE" speedFactor="0.90" vaporized=""/>
    <tripinfo id="46" depart="97.00" departLane="E0_0" departPos="5.10" departSpeed="2.27" departDelay="41.00" arrival="211.00" arrivalLane="E3_0" arrivalPos="90.46" arrivalSpeed="28.27" duration="114.00" routeLength="1314.99" waitingTime="0.00" waitingCount="0" stopTime="0.00" timeLoss="28.29" rerouteNo="0" devices="tripinfo_46" vType="DEFAULT_VEHTYPE" speedFactor="0.96" vaporized=""/>
    <tripinfo id="50" depart="107.00" departLane="E0_0" departPos="5.10" departSpeed="4.08" departDelay="43.00" arrival="212.00" arrivalLane="E3_0" arrivalPos="90.46" arrivalSpeed="28.15" duration="105.00" routeLength="1314.99" waitingTime="0.00" waitingCount="0" stopTime="0.00" timeLoss="22.81" rerouteNo="0" devices="tripinfo_50" vType="DEFAULT_VEHTYPE" speedFactor="1.00" vaporized=""/>
    <tripinfo id="51" depart="109.00" departLane="E0_0" departPos="5.10" departSpeed="0.98" departDelay="42.00" arrival="214.00" arrivalLane="E3_0" arrivalPos="90.46" arrivalSpeed="29.02" duration="105.00" routeLength="1314.99" waitingTime="0.00" waitingCount="0" stopTime="0.00" timeLoss="21.27" rerouteNo="0" devices="tripinfo_51" vType="DEFAULT_VEHTYPE" speedFactor="0.99" vaporized=""/>
    <tripinfo id="8" depart="14.00" departLane="E0_0" departPos="5.10" departSpeed="14.10" departDelay="3.00" arrival="224.00" arrivalLane="E3_0" arrivalPos="90.46" arrivalSpeed="25.65" duration="210.00" routeLength="1317.38" waitingTime="91.00" waitingCount="3" stopTime="0.00" timeLoss="125.25" rerouteNo="0" devices="tripinfo_8" vType="DEFAULT_VEHTYPE" speedFactor="1.02" vaporized=""/>
    <tripinfo id="56" depart="125.00" departLane="E0_0" departPos="5.10" departSpeed="6.03" departDelay="50.00" arrival="228.00" arrivalLane="E3_0" arrivalPos="90.46" arrivalSpeed="26.63" duration="103.00" routeLength="1314.99" waitingTime="0.00" waitingCount="0" stopTime="0.00" timeLoss="14.36" rerouteNo="0" devices="tripinfo_56" vType="DEFAULT_VEHTYPE" speedFactor="0.93" vaporized=""/>
    <tripinfo id="62" depart="137.00" departLane="E0_0" departPos="5.10" departSpeed="4.46" departDelay="57.00" arrival="242.00" arrivalLane="E3_0" arrivalPos="90.46" arrivalSpeed="26.53" duration="105.00" routeLength="1314.99" waitingTime="0.00" waitingCount="0" stopTime="0.00" timeLoss="13.94" rerouteNo="0" devices="tripinfo_62" vType="DEFAULT_VEHTYPE" speedFactor="0.90" vaporized=""/>
    <tripinfo id="65" depart="146.00" departLane="E0_0" departPos="5.10" departSpeed="6.62" departDelay="63.00" arrival="244.00" arrivalLane="E3_0" arrivalPos="90.46" arrivalSpeed="28.30" duration="98.00" routeLength="1314.99" waitingTime="0.00" waitingCount="0" stopTime="0.00" timeLoss="13.51" rerouteNo="0" devices="tripinfo_65" vType="DEFAULT_VEHTYPE" speedFactor="0.98" vaporized=""/>
    <tripinfo id="66" depart="148.00" departLane="E0_0" departPos="5.10" departSpeed="6.35" departDelay="62.00" arrival="246.00" arrivalLane="E3_0" arrivalPos="90.46" arrivalSpeed="28.58" duration="98.00" routeLength="1314.99" waitingTime="0.00" waitingCount="0" stopTime="0.00" timeLoss="13.53" rerouteNo="0" devices="tripinfo_66" vType="DEFAULT_VEHTYPE" speedFactor="0.98" vaporized=""/>
    <tripinfo id="68" depart="152.00" departLane="E0_0" departPos="5.10" departSpeed="6.09" departDelay="65.00" arrival="253.00" arrivalLane="E3_0" arrivalPos="90.46" arrivalSpeed="27.17" duration="101.00" routeLength="1314.99" waitingTime="0.00" waitingCount="0" stopTime="0.00" timeLoss="13.94" rerouteNo="0" devices="tripinfo_68" vType="DEFAULT_VEHTYPE" speedFactor="0.94" vaporized=""/>
    <tripinfo id="75" depart="166.00" departLane="E0_0" departPos="5.10" departSpeed="9.11" departDelay="75.00" arrival="255.00" arrivalLane="E3_0" arrivalPos="90.46" arrivalSpeed="32.81" duration="89.00" routeLength="1314.99" waitingTime="0.00" waitingCount="0" stopTime="0.00" timeLoss="14.14" rerouteNo="0" devices="tripinfo_75" vType="DEFAULT_VEHTYPE" speedFactor="1.10" vaporized=""/>
    <tripinfo id="76" depart="167.00" departLane="E0_0" departPos="5.10" departSpeed="3.85" departDelay="76.00" arrival="257.00" arrivalLane="E3_0" arrivalPos="90.46" arrivalSpeed="33.94" duration="90.00" routeLength="1314.99" waitingTime="0.00" waitingCount="0" stopTime="0.00" timeLoss="17.28" rerouteNo="0" devices="tripinfo_76" vType="DEFAULT_VEHTYPE" speedFactor="1.14" vaporized=""/>
    <tripinfo id="11" depart="18.00" departLane="E0_0" departPos="5.10" departSpeed="7.71" departDelay="0.00" arrival="267.00" arrivalLane="E3_0" arrivalPos="90.46" arrivalSpeed="23.73" duration="249.00" routeLength="1317.38" waitingTime="127.00" waitingCount="4" stopTime="0.00" timeLoss="172.53" rerouteNo="0" devices="tripinfo_11" vType="DEFAULT_VEHTYPE" speedFactor="1.12" vaporized=""/>
    <tripinfo id="80" depart="176.00" departLane="E0_0" departPos="5.10" departSpeed="6.18" departDelay="82.00" arrival="270.00" arrivalLane="E3_0" arrivalPos="90.46" arrivalSpeed="32.20" duration="94.00" routeLength="1314.99" waitingTime="0.00" waitingCount="0" stopTime="0.00" timeLoss="17.17" rerouteNo="0" devices="tripinfo_80" vType="DEFAULT_VEHTYPE" speedFactor="1.08" vaporized=""/>
    <tripinfo id="83" depart="181.00" departLane="E0_0" departPos="5.10" departSpeed="5.17" departDelay="82.00" arrival="276.00" arrivalLane="E3_0" arrivalPos="90.46" arrivalSpeed="31.57" duration="95.00" routeLength="1314.99" waitingTime="0.00" waitingCount="0" stopTime="0.00" timeLoss="18.40" rerouteNo="0" devices="tripinfo_83" vType="DEFAULT_VEHTYPE" speedFactor="1.06" vaporized=""/>
    <tripinfo id="86" depart="187.00" departLane="E0_0" departPos="5.10" departSpeed="5.95" departDelay="83.00" arrival="287.00" arrivalLane="E3_0" arrivalPos="90.46" arrivalSpeed="29.76" duration="100.00" routeLength="1314.99" waitingTime="0.00" waitingCount="0" stopTime="0.00" timeLoss="19.83" rerouteNo="0" devices="tripinfo_86" vType="DEFAULT_VEHTYPE" speedFactor="1.02" vaporized=""/>
    <tripinfo id="89" depart="192.00" departLane="E0_0" departPos="5.10" departSpeed="4.32" departDelay="86.00" arrival="288.00" arrivalLane="E3_0" arrivalPos="90.46" arrivalSpeed="32.80" duration="96.00" routeLength="1314.99" waitingTime="0.00" waitingCount="0" stopTime="0.00" timeLoss="26.74" rerouteNo="0" devices="tripinfo_89" vType="DEFAULT_VEHTYPE" speedFactor="1.18" vaporized=""/>
    <tripinfo id="12" depart="20.00" departLane="E0_0" departPos="5.10" departSpeed="8.71" departDelay="2.00" arrival="299.00" arrivalLane="E3_0" arrivalPos="90.46" arrivalSpeed="23.96" duration="279.00" routeLength="1317.38" waitingTime="140.00" waitingCount="5" stopTime="0.00" timeLoss="183.86" rerouteNo="0" devices="tripinfo_12" vType="DEFAULT_VEHTYPE" speedFactor="0.90" vaporized=""/>
    <tripinfo id="92" depart="200.00" departLane="E0_0" departPos="5.10" departSpeed="6.73" departDelay="92.00" arrival="304.00" arrivalLane="E3_0" arrivalPos="90.46" arrivalSpeed="28.08" duration="104.00" routeLength="1314.99" waitingTime="0.00" waitingCount="0" stopTime="0.00" timeLoss="19.77" rerouteNo="0" devices="tripinfo_92" vType="DEFAULT_VEHTYPE" speedFactor="0.98" vaporized=""/>
    <tripinfo id="93" depart="202.00" departLane="E0_0" departPos="5.10" departSpeed="4.65" departDelay="93.00" arrival="309.00" arrivalLane="E3_0" arrivalPos="90.46" arrivalSpeed="27.03" duration="107.00" routeLength="1314.99" waitingTime="0.00" waitingCount="0" stopTime="0.00" timeLoss="19.44" rerouteNo="0" devices="tripinfo_93" vType="DEFAULT_VEHTYPE" speedFactor="0.94" vaporized=""/>
    <tripinfo id="94" depart="204.00" departLane="E0_0" departPos="5.10" departSpeed="1.73" departDelay="95.00" arrival="310.00" arrivalLane="E3_0" arrivalPos="90.46" arrivalSpeed="30.23" duration="106.00" routeLength="1314.99" waitingTime="0.00" waitingCount="0" stopTime="0.00" timeLoss="26.71" rerouteNo="0" devices="tripinfo_94" vType="DEFAULT_VEHTYPE" speedFactor="1.03" vaporized=""/>
    <tripinfo id="14" depart="23.00" departLane="E0_0" departPos="5.10" departSpeed="3.78" departDelay="4.00" arrival="319.00" arrivalLane="E3_0" arrivalPos="90.46" arrivalSpeed="23.72" duration="296.00" routeLength="1317.38" waitingTime="152.00" waitingCount="6" stopTime="0.00" timeLoss="213.86" rerouteNo="0" devices="tripinfo_14" vType="DEFAULT_VEHTYPE" speedFactor="1.04" vaporized=""/>
    <tripinfo id="96" depart="209.00" departLane="E0_0" departPos="5.10" departSpeed="2.04" departDelay="97.00" arrival="324.00" arrivalLane="E3_0" arrivalPos="90.46" arrivalSpeed="26.47" duration="115.00" routeLength="1314.99" waitingTime="0.00" waitingCount="0" stopTime="0.00" timeLoss="21.53" rerouteNo="0" devices="tripinfo_96" vType="DEFAULT_VEHTYPE" speedFactor="0.89" vaporized=""/>
    <tripinfo id="100" depart="218.00" departLane="E0_0" departPos="5.10" departSpeed="5.67" departDelay="100.00" arrival="325.00" arrivalLane="E3_0" arrivalPos="90.46" arrivalSpeed="27.61" duration="107.00" routeLength="1314.99" waitingTime="0.00" waitingCount="0" stopTime="0.00" timeLoss="32.51" rerouteNo="0" devices="tripinfo_100" vType="DEFAULT_VEHTYPE" speedFactor="1.10" vaporized=""/>
    <tripinfo id="102" depart="223.00" departLane="E0_0" departPos="5.10" departSpeed="3.56" departDelay="103.00" arrival="340.00" arrivalLane="E3_0" arrivalPos="90.46" arrivalSpeed="24.61" duration="117.00" routeLength="1314.99" waitingTime="0.00" waitingCount="0" stopTime="0.00" timeLoss="18.80" rerouteNo="0" devices="tripinfo_102" vType="DEFAULT_VEHTYPE" speedFactor="0.84" vaporized=""/>
    <tripinfo id="104" depart="228.00" departLane="E0_0" departPos="5.10" departSpeed="1.60" departDelay="107.00" arrival="342.00" arrivalLane="E3_0" arrivalPos="90.46" arrivalSpeed="28.29" duration="114.00" routeLength="1314.99" waitingTime="0.00" waitingCount="0" stopTime="0.00" timeLoss="34.01" rerouteNo="0" devices="tripinfo_104" vType="DEFAULT_VEHTYPE" speedFactor="1.04" vaporized=""/>
    <tripinfo id="106" depart="235.00" departLane="E0_0" departPos="5.10" departSpeed="6.33" departDelay="114.00" arrival="343.00" arrivalLane="E3_0" arrivalPos="90.46" arrivalSpeed="27.81" duration="108.00" routeLength="1314.99" waitingTime="0.00" waitingCount="0" stopTime="0.00" timeLoss="21.87" rerouteNo="0" devices="tripinfo_106" vType="DEFAULT_VEHTYPE" speedFactor="0.95" vaporized=""/>
    <tripinfo id="110" depart="243.00" departLane="E0_0" departPos="5.10" departSpeed="9.47" departDelay="117.00" arrival="345.00" arrivalLane="E3_0" arrivalPos="90.46" arrivalSpeed="30.42" duration="102.00" routeLength="1314.99" waitingTime="0.00" waitingCount="0" stopTime="0.00" timeLoss="20.57" rerouteNo="0" devices="tripinfo_110" vType="DEFAULT_VEHTYPE" speedFactor="1.01" vaporized=""/>
    <tripinfo id="111" depart="244.00" departLane="E0_0" departPos="5.10" departSpeed="4.98" departDelay="115.00" arrival="346.00" arrivalLane="E3_0" arrivalPos="90.46" arrivalSpeed="29.68" duration="102.00" routeLength="1314.99" waitingTime="0.00" waitingCount="0" stopTime="0.00" timeLoss="29.36" rerouteNo="0" devices="tripinfo_111" vType="DEFAULT_VEHTYPE" speedFactor="1.13" vaporized=""/>
    <tripinfo id="20" depart="36.00" departLane="E0_0" departPos="5.10" departSpeed="5.19" departDelay="12.00" arrival="355.00" arrivalLane="E3_0" arrivalPos="90.46" arrivalSpeed="23.22" duration="319.00" routeLength="1317.38" waitingTime="171.00" waitingCount="8" stopTime="0.00" timeLoss="234.19" rerouteNo="0" devices="tripinfo_20" vType="DEFAULT_VEHTYPE" speedFactor="1.01" vaporized=""/>
    <tripinfo id="113" depart="248.00" departLane="E0_0" departPos="5.10" departSpeed="2.00" departDelay="117.00" arrival="361.00" arrivalLane="E3_0" arrivalPos="90.46" arrivalSpeed="26.03" duration="113.00" routeLength="1314.99" waitingTime="0.00" waitingCount="0" stopTime="0.00" timeLoss="19.64" rerouteNo="0" devices="tripinfo_113" vType="DEFAULT_VEHTYPE" speedFactor="0.89" vaporized=""/>
    <tripinfo id="114" depart="251.00" departLane="E0_0" departPos="5.10" departSpeed="5.09" departDelay="120.00" arrival="362.00" arrivalLane="E3_0" arrivalPos="90.46" arrivalSpeed="27.85" duration="111.00" routeLength="1314.99" waitingTime="0.00" waitingCount="0" stopTime="0.00" timeLoss="25.55" rerouteNo="0" devices="tripinfo_114" vType="DEFAULT_VEHTYPE" speedFactor="0.97" vaporized=""/>
    <tripinfo id="115" depart="253.00" departLane="E0_0" departPos="5.10" departSpeed="3.85" departDelay="122.00" arrival="363.00" arrivalLane="E3_0" arrivalPos="90.46" arrivalSpeed="28.16" duration="110.00" routeLength="1314.99" waitingTime="0.00" waitingCount="0" stopTime="0.00" timeLoss="31.05" rerouteNo="0" devices="tripinfo_115" vType="DEFAULT_VEHTYPE" speedFactor="1.04" vaporized=""/>
    <tripinfo id="120" depart="267.00" departLane="E0_0" departPos="5.10" departSpeed="0.40" departDelay="131.00" arrival="365.00" arrivalLane="E3_0" arrivalPos="90.46" arrivalSpeed="30.03" duration="98.00" routeLength="1314.99" waitingTime="0.00" waitingCount="0" stopTime="0.00" timeLoss="16.01" rerouteNo="0" devices="tripinfo_120" vType="DEFAULT_VEHTYPE" speedFactor="1.01" vaporized=""/>
    <tripinfo id="122" depart="273.00" departLane="E0_0" departPos="5.10" departSpeed="6.30" departDelay="136.00" arrival="370.00" arrivalLane="E3_0" arrivalPos="90.46" arrivalSpeed="29.26" duration="97.00" routeLength="1314.99" waitingTime="0.00" waitingCount="0" stopTime="0.00" timeLoss="14.83" rerouteNo="0" devices="tripinfo_122" vType="DEFAULT_VEHTYPE" speedFactor="1.00" vaporized=""/>
    <tripinfo id="21" depart="38.00" departLane="E0_0" departPos="5.10" departSpeed="2.06" departDelay="13.00" arrival="381.00" arrivalLane="E3_0" arrivalPos="90.46" arrivalSpeed="23.70" duration="343.00" routeLength="1317.38" waitingTime="175.00" waitingCount="8" stopTime="0.00" timeLoss="244.70" rerouteNo="0" devices="tripinfo_21" vType="DEFAULT_VEHTYPE" speedFactor="0.87" vaporized=""/>
    <tripinfo id="22" depart="41.00" departLane="E0_0" departPos="5.10" departSpeed="5.41" departDelay="15.00" arrival="383.00" arrivalLane="E3_0" arrivalPos="90.46" arrivalSpeed="24.95" duration="342.00" routeLength="1317.38" waitingTime="171.00" waitingCount="8" stopTime="0.00" timeLoss="258.81" rerouteNo="0" devices="tripinfo_22" vType="DEFAULT_VEHTYPE" speedFactor="1.03" vaporized=""/>
    <tripinfo id="23" depart="43.00" departLane="E0_0" departPos="5.10" departSpeed="2.11" departDelay="14.00" arrival="385.00" arrivalLane="E3_0" arrivalPos="90.46" arrivalSpeed="25.64" duration="342.00" routeLength="1317.38" waitingTime="169.00" waitingCount="8" stopTime="0.00" timeLoss="266.00" rerouteNo="0" devices="tripinfo_23" vType="DEFAULT_VEHTYPE" speedFactor="1.13" vaporized=""/>
    <tripinfo id="24" depart="46.00" departLane="E0_0" departPos="5.10" departSpeed="4.77" departDelay="17.00" arrival="388.00" arrivalLane="E3_0" arrivalPos="90.46" arrivalSpeed="23.61" duration="342.00" routeLength="1317.38" waitingTime="164.00" waitingCount="8" stopTime="0.00" timeLoss="246.25" rerouteNo="0" devices="tripinfo_24" vType="DEFAULT_VEHTYPE" speedFactor="0.89" vaporized=""/>
    <tripinfo id="25" depart="48.00" departLane="E0_0" departPos="5.10" departSpeed="3.20" departDelay="18.00" arrival="389.00" arrivalLane="E3_0" arrivalPos="90.46" arrivalSpeed="24.15" duration="341.00" routeLength="1317.38" waitingTime="161.00" waitingCount="9" stopTime="0.00" timeLoss="267.28" rerouteNo="0" devices="tripinfo_25" vType="DEFAULT_VEHTYPE" speedFactor="1.15" vaporized=""/>
    <tripinfo id="124" depart="277.00" departLane="E0_0" departPos="5.10" departSpeed="7.76" departDelay="138.00" arrival="395.00" arrivalLane="E3_0" arrivalPos="90.46" arrivalSpeed="23.14" duration="118.00" routeLength="1314.99" waitingTime="0.00" waitingCount="0" stopTime="0.00" timeLoss="15.80" rerouteNo="0" devices="tripinfo_124" vType="DEFAULT_VEHTYPE" speedFactor="0.80" vaporized=""/>
    <tripinfo id="126" depart="280.00" departLane="E0_0" departPos="5.10" departSpeed="3.18" departDelay="140.00" arrival="396.00" arrivalLane="E3_0" arrivalPos="90.46" arrivalSpeed="25.04" duration="116.00" routeLength="1314.99" waitingTime="0.00" waitingCount="0" stopTime="0.00" timeLoss="31.55" rerouteNo="0" devices="tripinfo_126" vType="DEFAULT_VEHTYPE" speedFactor="0.97" vaporized=""/>
    <tripinfo id="127" depart="282.00" departLane="E0_0" departPos="5.10" departSpeed="0.38" departDelay="140.00" arrival="398.00" arrivalLane="E3_0" arrivalPos="90.46" arrivalSpeed="26.36" duration="116.00" routeLength="1314.99" waitingTime="0.00" waitingCount="0" stopTime="0.00" timeLoss="25.99" rerouteNo="0" devices="tripinfo_127" vType="DEFAULT_VEHTYPE" speedFactor="0.91" vaporized=""/>
    <tripinfo id="128" depart="286.00" departLane="E0_0" departPos="5.10" departSpeed="5.61" departDelay="144.00" arrival="399.00" arrivalLane="E3_0" arrivalPos="90.46" arrivalSpeed="25.47" duration="113.00" routeLength="1314.99" waitingTime="0.00" waitingCount="0" stopTime="0.00" timeLoss="40.10" rerouteNo="0" devices="tripinfo_128" vType="DEFAULT_VEHTYPE" speedFactor="1.13" vaporized=""/>
    <tripinfo id="129" depart="288.00" departLane="E0_0" departPos="5.10" departSpeed="4.44" departDelay="146.00" arrival="401.00" arrivalLane="E3_0" arrivalPos="90.46" arrivalSpeed="27.45" duration="113.00" routeLength="1314.99" waitingTime="0.00" waitingCount="0" stopTime="0.00" timeLoss="29.07" rerouteNo="0" devices="tripinfo_129" vType="DEFAULT_VEHTYPE" speedFactor="0.98" vaporized=""/>
    <tripinfo id="131" depart="292.00" departLane="E0_0" departPos="5.10" departSpeed="4.07" departDelay="149.00" arrival="402.00" arrivalLane="E3_0" arrivalPos="90.46" arrivalSpeed="26.71" duration="110.00" routeLength="1314.99" waitingTime="0.00" waitingCount="0" stopTime="0.00" timeLoss="18.37" rerouteNo="0" devices="tripinfo_131" vType="DEFAULT_VEHTYPE" speedFactor="0.90" vaporized=""/>