<?xml version="1.0" encoding="UTF-8"?>

<!-- generated on 2023-04-29 15:05:45 by Eclipse SUMO sumo Version 1.16.0
<configuration xmlns:xsi="http://www.w3.org/2001/XMLSchema-instance" xsi:noNamespaceSchemaLocation="http://sumo.dlr.de/xsd/sumoConfiguration.xsd">

    <input>
        <net-file value="005/../configurations/maps/4corners_neighborhoods.net.xml"/>
        <route-files value="005/Trips_File_005.rou.xml"/>
        <additional-files value="005/../edgedata.add.xml"/>
    </input>

    <output>
        <output-prefix value="005/"/>
        <summary-output value="005/../summary_005.xml"/>
        <tripinfo-output value="005/../tripinfo_005.xml"/>
    </output>

    <time>
        <begin value="0"/>
    </time>

    <processing>
        <route-steps value="200"/>
        <no-internal-links value="False"/>
        <time-to-teleport value="300"/>
        <time-to-teleport.highways value="0"/>
        <eager-insert value="False"/>
    </processing>

    <report>
        <verbose value="true"/>
        <no-warnings value="False"/>
        <log value="005/../iteration_005.sumo.log"/>
        <no-step-log value="true"/>
    </report>

    <mesoscopic>
        <mesosim value="true"/>
        <meso-recheck value="0"/>
    </mesoscopic>

    <random_number>
        <random value="False"/>
    </random_number>

</configuration>
-->

<tripinfos xmlns:xsi="http://www.w3.org/2001/XMLSchema-instance" xsi:noNamespaceSchemaLocation="http://sumo.dlr.de/xsd/tripinfo_file.xsd">
    <tripinfo id="16" depart="21.00" departLane="" departPos="0.00" departSpeed="27.54" departDelay="0.00" arrival="46.00" arrivalLane="" arrivalPos="71.22" arrivalSpeed="13.77" duration="25.00" routeLength="612.32" waitingTime="0.00" waitingCount="0" stopTime="0.00" timeLoss="0.00" rerouteNo="0" devices="tripinfo_16" vType="DEFAULT_VEHTYPE" speedFactor="0.99" vaporized=""/>
    <tripinfo id="9" depart="9.00" departLane="" departPos="0.00" departSpeed="12.31" departDelay="0.00" arrival="47.00" arrivalLane="" arrivalPos="294.40" arrivalSpeed="24.61" duration="38.00" routeLength="850.33" waitingTime="0.00" waitingCount="0" stopTime="0.00" timeLoss="0.00" rerouteNo="0" devices="tripinfo_9" vType="DEFAULT_VEHTYPE" speedFactor="0.89" vaporized=""/>
    <tripinfo id="12" depart="14.00" departLane="" departPos="0.00" departSpeed="15.15" departDelay="0.00" arrival="47.00" arrivalLane="" arrivalPos="294.40" arrivalSpeed="24.61" duration="33.00" routeLength="850.33" waitingTime="0.24" waitingCount="0" stopTime="0.00" timeLoss="2.49" rerouteNo="0" devices="tripinfo_12" vType="DEFAULT_VEHTYPE" speedFactor="1.09" vaporized=""/>
    <tripinfo id="33" depart="31.00" departLane="" departPos="0.00" departSpeed="16.03" departDelay="0.00" arrival="54.00" arrivalLane="" arrivalPos="71.22" arrivalSpeed="16.03" duration="23.00" routeLength="617.84" waitingTime="0.00" waitingCount="0" stopTime="0.00" timeLoss="0.00" rerouteNo="0" devices="tripinfo_33" vType="DEFAULT_VEHTYPE" speedFactor="1.15" vaporized=""/>
    <tripinfo id="5" depart="3.00" departLane="" departPos="0.00" departSpeed="30.08" departDelay="0.00" arrival="55.00" arrivalLane="" arrivalPos="294.40" arrivalSpeed="30.07" duration="52.00" routeLength="1556.98" waitingTime="0.00" waitingCount="0" stopTime="0.00" timeLoss="0.00" rerouteNo="0" devices="tripinfo_5" vType="DEFAULT_VEHTYPE" speedFactor="1.08" vaporized=""/>
    <tripinfo id="26" depart="27.00" departLane="" departPos="0.00" departSpeed="9.58" departDelay="0.00" arrival="59.00" arrivalLane="" arrivalPos="38.78" arrivalSpeed="11.47" duration="32.00" routeLength="594.71" waitingTime="0.00" waitingCount="0" stopTime="0.00" timeLoss="1.22" rerouteNo="0" devices="tripinfo_26" vType="DEFAULT_VEHTYPE" speedFactor="0.83" vaporized=""/>
    <tripinfo id="23" depart="27.00" departLane="" departPos="0.00" departSpeed="28.06" departDelay="0.00" arrival="62.00" arrivalLane="" arrivalPos="100.00" arrivalSpeed="28.06" duration="35.00" routeLength="952.53" waitingTime="0.00" waitingCount="0" stopTime="0.00" timeLoss="0.07" rerouteNo="0" devices="tripinfo_23" vType="DEFAULT_VEHTYPE" speedFactor="1.01" vaporized=""/>
    <tripinfo id="13" depart="17.00" departLane="" departPos="0.00" departSpeed="28.51" departDelay="0.00" arrival="65.00" arrivalLane="" arrivalPos="38.78" arrivalSpeed="14.26" duration="48.00" routeLength="1301.36" waitingTime="0.60" waitingCount="0" stopTime="0.00" timeLoss="0.60" rerouteNo="0" devices="tripinfo_13" vType="DEFAULT_VEHTYPE" speedFactor="1.03" vaporized=""/>
    <tripinfo id="25" depart="27.00" departLane="" departPos="0.00" departSpeed="12.36" departDelay="0.00" arrival="65.00" arrivalLane="" arrivalPos="257.55" arrivalSpeed="24.71" duration="38.00" routeLength="854.05" waitingTime="0.00" waitingCount="0" stopTime="0.00" timeLoss="0.00" rerouteNo="0" devices="tripinfo_25" vType="DEFAULT_VEHTYPE" speedFactor="0.89" vaporized=""/>
    <tripinfo id="21" depart="26.00" departLane="" departPos="0.00" departSpeed="32.17" departDelay="0.00" arrival="66.00" arrivalLane="" arrivalPos="294.40" arrivalSpeed="32.17" duration="40.00" routeLength="1225.09" waitingTime="0.56" waitingCount="0" stopTime="0.00" timeLoss="1.25" rerouteNo="0" devices="tripinfo_21" vType="DEFAULT_VEHTYPE" speedFactor="1.16" vaporized=""/>
    <tripinfo id="2" depart="1.00" departLane="" departPos="0.00" departSpeed="14.72" departDelay="0.00" arrival="69.00" arrivalLane="" arrivalPos="806.12" arrivalSpeed="23.55" duration="68.00" routeLength="1295.54" waitingTime="0.00" waitingCount="0" stopTime="0.00" timeLoss="0.00" rerouteNo="0" devices="tripinfo_2" vType="DEFAULT_VEHTYPE" speedFactor="1.06" vaporized=""/>
    <tripinfo id="30" depart="30.00" departLane="" departPos="0.00" departSpeed="31.44" departDelay="0.00" arrival="69.00" arrivalLane="" arrivalPos="294.40" arrivalSpeed="31.44" duration="39.00" routeLength="1225.09" waitingTime="0.00" waitingCount="0" stopTime="0.00" timeLoss="0.00" rerouteNo="0" devices="tripinfo_30" vType="DEFAULT_VEHTYPE" speedFactor="1.13" vaporized=""/>
    <tripinfo id="11" depart="13.00" departLane="" departPos="0.00" departSpeed="11.90" departDelay="0.00" arrival="71.00" arrivalLane="" arrivalPos="257.55" arrivalSpeed="23.80" duration="58.00" routeLength="1329.61" waitingTime="0.00" waitingCount="0" stopTime="0.00" timeLoss="0.00" rerouteNo="0" devices="tripinfo_11" vType="DEFAULT_VEHTYPE" speedFactor="0.86" vaporized=""/>
    <tripinfo id="3" depart="3.00" departLane="" departPos="0.00" departSpeed="20.85" departDelay="0.00" arrival="73.00" arrivalLane="" arrivalPos="71.22" arrivalSpeed="13.03" duration="70.00" routeLength="1246.20" waitingTime="0.31" waitingCount="0" stopTime="0.00" timeLoss="0.31" rerouteNo="0" devices="tripinfo_3" vType="DEFAULT_VEHTYPE" speedFactor="0.94" vaporized=""/>
    <tripinfo id="20" depart="25.00" departLane="" departPos="0.00" departSpeed="26.01" departDelay="0.00" arrival="76.00" arrivalLane="" arrivalPos="257.55" arrivalSpeed="26.01" duration="51.00" routeLength="1324.09" waitingTime="0.00" waitingCount="0" stopTime="0.00" timeLoss="0.00" rerouteNo="0" devices="tripinfo_20" vType="DEFAULT_VEHTYPE" speedFactor="0.94" vaporized=""/>
    <tripinfo id="34" depart="33.00" departLane="" departPos="0.00" departSpeed="27.92" departDelay="0.00" arrival="78.00" arrivalLane="" arrivalPos="100.00" arrivalSpeed="27.92" duration="45.00" routeLength="1209.17" waitingTime="0.09" waitingCount="0" stopTime="0.00" timeLoss="1.41" rerouteNo="0" devices="tripinfo_34" vType="DEFAULT_VEHTYPE" speedFactor="1.01" vaporized=""/>
    <tripinfo id="35" depart="34.00" departLane="" departPos="0.00" departSpeed="16.27" departDelay="0.00" arrival="78.00" arrivalLane="" arrivalPos="257.55" arrivalSpeed="26.01" duration="44.00" routeLength="1329.61" waitingTime="0.00" waitingCount="0" stopTime="0.00" timeLoss="1.03" rerouteNo="0" devices="tripinfo_35" vType="DEFAULT_VEHTYPE" speedFactor="1.17" vaporized=""/>
    <tripinfo id="42" depart="44.00" departLane="" departPos="0.00" departSpeed="11.19" departDelay="0.00" arrival="78.00" arrivalLane="" arrivalPos="294.40" arrivalSpeed="28.62" duration="34.00" routeLength="850.33" waitingTime="0.00" waitingCount="0" stopTime="0.00" timeLoss="1.39" rerouteNo="0" devices="tripinfo_42" vType="DEFAULT_VEHTYPE" speedFactor="1.03" vaporized=""/>
    <tripinfo id="51" depart="49.00" departLane="" departPos="0.00" departSpeed="23.62" departDelay="0.00" arrival="78.00" arrivalLane="" arrivalPos="71.22" arrivalSpeed="11.81" duration="29.00" routeLength="612.32" waitingTime="0.00" waitingCount="0" stopTime="0.00" timeLoss="0.00" rerouteNo="0" devices="tripinfo_51" vType="DEFAULT_VEHTYPE" speedFactor="0.85" vaporized=""/>
    <tripinfo id="8" depart="7.00" departLane="" departPos="0.00" departSpeed="14.52" departDelay="0.00" arrival="80.00" arrivalLane="" arrivalPos="325.99" arrivalSpeed="23.24" duration="73.00" routeLength="1775.73" waitingTime="0.00" waitingCount="0" stopTime="0.00" timeLoss="0.00" rerouteNo="0" devices="tripinfo_8" vType="DEFAULT_VEHTYPE" speedFactor="1.05" vaporized=""/>
    <tripinfo id="29" depart="30.00" departLane="" departPos="0.00" departSpeed="26.36" departDelay="0.00" arrival="81.00" arrivalLane="" arrivalPos="38.78" arrivalSpeed="13.18" duration="51.00" routeLength="1301.36" waitingTime="0.00" waitingCount="0" stopTime="0.00" timeLoss="0.00" rerouteNo="0" devices="tripinfo_29" vType="DEFAULT_VEHTYPE" speedFactor="0.95" vaporized=""/>
    <tripinfo id="22" depart="26.00" departLane="" departPos="0.00" departSpeed="28.28" departDelay="0.00" arrival="82.00" arrivalLane="" arrivalPos="294.40" arrivalSpeed="28.28" duration="56.00" routeLength="1556.98" waitingTime="0.00" waitingCount="0" stopTime="0.00" timeLoss="0.00" rerouteNo="0" devices="tripinfo_22" vType="DEFAULT_VEHTYPE" speedFactor="1.02" vaporized=""/>
    <tripinfo id="38" depart="37.00" departLane="" departPos="0.00" departSpeed="27.04" departDelay="0.00" arrival="82.00" arrivalLane="" arrivalPos="100.00" arrivalSpeed="27.03" duration="45.00" routeLength="1209.17" waitingTime="0.00" waitingCount="0" stopTime="0.00" timeLoss="0.00" rerouteNo="0" devices="tripinfo_38" vType="DEFAULT_VEHTYPE" speedFactor="0.97" vaporized=""/>
    <tripinfo id="40" depart="41.00" departLane="" departPos="0.00" departSpeed="30.62" departDelay="0.00" arrival="82.00" arrivalLane="" arrivalPos="294.40" arrivalSpeed="28.28" duration="41.00" routeLength="1225.09" waitingTime="0.00" waitingCount="0" stopTime="0.00" timeLoss="0.51" rerouteNo="0" devices="tripinfo_40" vType="DEFAULT_VEHTYPE" speedFactor="1.10" vaporized=""/>
    <tripinfo id="4" depart="3.00" departLane="" departPos="0.00" departSpeed="16.28" departDelay="0.00" arrival="84.00" arrivalLane="" arrivalPos="100.00" arrivalSpeed="28.07" duration="81.00" routeLength="1606.44" waitingTime="0.20" waitingCount="0" stopTime="0.00" timeLoss="5.98" rerouteNo="0" devices="tripinfo_4" vType="DEFAULT_VEHTYPE" speedFactor="1.01" vaporized=""/>
    <tripinfo id="53" depart="55.00" departLane="" departPos="0.00" departSpeed="16.23" departDelay="0.00" arrival="84.00" arrivalLane="" arrivalPos="257.55" arrivalSpeed="32.47" duration="29.00" routeLength="854.05" waitingTime="0.00" waitingCount="0" stopTime="0.00" timeLoss="0.00" rerouteNo="0" devices="tripinfo_53" vType="DEFAULT_VEHTYPE" speedFactor="1.17" vaporized=""/>
    <tripinfo id="31" depart="30.00" departLane="" departPos="0.00" departSpeed="18.43" departDelay="0.00" arrival="85.00" arrivalLane="" arrivalPos="38.78" arrivalSpeed="12.94" duration="55.00" routeLength="1301.36" waitingTime="1.09" waitingCount="0" stopTime="0.00" timeLoss="2.67" rerouteNo="0" devices="tripinfo_31" vType="DEFAULT_VEHTYPE" speedFactor="0.93" vaporized=""/>
    <tripinfo id="62" depart="62.00" departLane="" departPos="0.00" departSpeed="12.22" departDelay="0.00" arrival="87.00" arrivalLane="" arrivalPos="38.78" arrivalSpeed="15.04" duration="25.00" routeLength="594.71" waitingTime="0.00" waitingCount="0" stopTime="0.00" timeLoss="1.09" rerouteNo="0" devices="tripinfo_62" vType="DEFAULT_VEHTYPE" speedFactor="1.08" vaporized=""/>
    <tripinfo id="6" depart="6.00" departLane="" departPos="0.00" departSpeed="22.89" departDelay="0.00" arrival="89.00" arrivalLane="" arrivalPos="71.22" arrivalSpeed="14.31" duration="83.00" routeLength="1703.70" waitingTime="0.00" waitingCount="0" stopTime="0.00" timeLoss="0.27" rerouteNo="0" devices="tripinfo_6" vType="DEFAULT_VEHTYPE" speedFactor="1.03" vaporized=""/>
    <tripinfo id="10" depart="10.00" departLane="" departPos="0.00" departSpeed="20.84" departDelay="0.00" arrival="90.00" arrivalLane="" arrivalPos="100.00" arrivalSpeed="26.05" duration="80.00" routeLength="1606.44" waitingTime="0.00" waitingCount="0" stopTime="0.00" timeLoss="0.00" rerouteNo="0" devices="tripinfo_10" vType="DEFAULT_VEHTYPE" speedFactor="0.94" vaporized=""/>
    <tripinfo id="14" depart="20.00" departLane="" departPos="0.00" departSpeed="29.08" departDelay="0.00" arrival="91.00" arrivalLane="" arrivalPos="806.12" arrivalSpeed="23.27" duration="71.00" routeLength="1738.65" waitingTime="0.00" waitingCount="0" stopTime="0.00" timeLoss="0.00" rerouteNo="0" devices="tripinfo_14" vType="DEFAULT_VEHTYPE" speedFactor="1.05" vaporized=""/>
    <tripinfo id="43" depart="44.00" departLane="" departPos="0.00" departSpeed="26.59" departDelay="0.00" arrival="91.00" arrivalLane="" arrivalPos="257.55" arrivalSpeed="26.59" duration="47.00" routeLength="1228.81" waitingTime="0.00" waitingCount="0" stopTime="0.00" timeLoss="0.00" rerouteNo="0" devices="tripinfo_43" vType="DEFAULT_VEHTYPE" speedFactor="0.96" vaporized=""/>
    <tripinfo id="59" depart="60.00" departLane="" departPos="0.00" departSpeed="15.87" departDelay="0.00" arrival="91.00" arrivalLane="" arrivalPos="294.40" arrivalSpeed="31.74" duration="31.00" routeLength="850.33" waitingTime="0.00" waitingCount="0" stopTime="0.00" timeLoss="1.54" rerouteNo="0" devices="tripinfo_59" vType="DEFAULT_VEHTYPE" speedFactor="1.14" vaporized=""/>
    <tripinfo id="7" depart="7.00" departLane="" departPos="0.00" departSpeed="18.46" departDelay="0.00" arrival="92.00" arrivalLane="" arrivalPos="325.99" arrivalSpeed="18.46" duration="85.00" routeLength="1534.17" waitingTime="0.92" waitingCount="0" stopTime="0.00" timeLoss="0.92" rerouteNo="0" devices="tripinfo_7" vType="DEFAULT_VEHTYPE" speedFactor="0.83" vaporized=""/>
    <tripinfo id="28" depart="29.00" departLane="" departPos="0.00" departSpeed="20.38" departDelay="0.00" arrival="95.00" arrivalLane="" arrivalPos="143.59" arrivalSpeed="20.38" duration="66.00" routeLength="1330.63" waitingTime="0.00" waitingCount="0" stopTime="0.00" timeLoss="0.00" rerouteNo="0" devices="tripinfo_28" vType="DEFAULT_VEHTYPE" speedFactor="0.92" vaporized=""/>
    <tripinfo id="44" depart="45.00" departLane="" departPos="0.00" departSpeed="30.33" departDelay="0.00" arrival="97.00" arrivalLane="" arrivalPos="294.40" arrivalSpeed="30.33" duration="52.00" routeLength="1556.98" waitingTime="0.00" waitingCount="0" stopTime="0.00" timeLoss="0.00" rerouteNo="0" devices="tripinfo_44" vType="DEFAULT_VEHTYPE" speedFactor="1.09" vaporized=""/>
    <tripinfo id="27" depart="29.00" departLane="" departPos="0.00" departSpeed="19.39" departDelay="0.00" arrival="99.00" arrivalLane="" arrivalPos="806.12" arrivalSpeed="19.39" duration="70.00" routeLength="1333.25" waitingTime="1.03" waitingCount="0" stopTime="0.00" timeLoss="1.03" rerouteNo="0" devices="tripinfo_27" vType="DEFAULT_VEHTYPE" speedFactor="0.87" vaporized=""/>
    <tripinfo id="15" depart="20.00" departLane="" departPos="0.00" departSpeed="25.65" departDelay="0.00" arrival="101.00" arrivalLane="" arrivalPos="806.12" arrivalSpeed="19.39" duration="81.00" routeLength="1738.65" waitingTime="2.24" waitingCount="0" stopTime="0.00" timeLoss="14.61" rerouteNo="0" devices="tripinfo_15" vType="DEFAULT_VEHTYPE" speedFactor="1.12" vaporized=""/>
    <tripinfo id="32" depart="31.00" departLane="" departPos="0.00" departSpeed="13.96" departDelay="0.00" arrival="102.00" arrivalLane="" arrivalPos="806.12" arrivalSpeed="19.39" duration="71.00" routeLength="1363.89" waitingTime="2.17" waitingCount="0" stopTime="0.00" timeLoss="17.46" rerouteNo="0" devices="tripinfo_32" vType="DEFAULT_VEHTYPE" speedFactor="1.18" vaporized=""/>
    <tripinfo id="17" depart="23.00" departLane="" departPos="0.00" departSpeed="25.75" departDelay="0.00" arrival="104.00" arrivalLane="" arrivalPos="806.12" arrivalSpeed="19.39" duration="81.00" routeLength="1738.65" waitingTime="0.00" waitingCount="0" stopTime="0.00" timeLoss="0.66" rerouteNo="0" devices="tripinfo_17" vType="DEFAULT_VEHTYPE" speedFactor="0.93" vaporized=""/>
    <tripinfo id="24" depart="27.00" departLane="" departPos="0.00" departSpeed="21.66" departDelay="0.00" arrival="105.00" arrivalLane="" arrivalPos="38.78" arrivalSpeed="13.54" duration="78.00" routeLength="1325.01" waitingTime="0.20" waitingCount="0" stopTime="0.00" timeLoss="2.26" rerouteNo="0" devices="tripinfo_24" vType="DEFAULT_VEHTYPE" speedFactor="0.97" vaporized=""/>
    <tripinfo id="46" depart="46.00" departLane="" departPos="0.00" departSpeed="28.98" departDelay="0.00" arrival="105.00" arrivalLane="" arrivalPos="143.59" arrivalSpeed="23.18" duration="59.00" routeLength="1459.06" waitingTime="0.00" waitingCount="0" stopTime="0.00" timeLoss="0.00" rerouteNo="0" devices="tripinfo_46" vType="DEFAULT_VEHTYPE" speedFactor="1.04" vaporized=""/>
    <tripinfo id="36" depart="35.00" departLane="" departPos="0.00" departSpeed="27.63" departDelay="0.00" arrival="106.00" arrivalLane="" arrivalPos="806.12" arrivalSpeed="22.10" duration="71.00" routeLength="1290.02" waitingTime="0.00" waitingCount="0" stopTime="0.00" timeLoss="0.00" rerouteNo="0" devices="tripinfo_36" vType="DEFAULT_VEHTYPE" speedFactor="0.99" vaporized=""/>
    <tripinfo id="39" depart="37.00" departLane="" departPos="0.00" departSpeed="32.77" departDelay="0.00" arrival="107.00" arrivalLane="" arrivalPos="806.12" arrivalSpeed="22.10" duration="70.00" routeLength="1290.02" waitingTime="0.00" waitingCount="0" stopTime="0.00" timeLoss="10.44" rerouteNo="0" devices="tripinfo_39" vType="DEFAULT_VEHTYPE" speedFactor="1.18" vaporized=""/>
    <tripinfo id="37" depart="35.00" departLane="" departPos="0.00" departSpeed="28.33" departDelay="0.00" arrival="109.00" arrivalLane="" arrivalPos="806.12" arrivalSpeed="22.66" duration="74.00" routeLength="1738.65" waitingTime="0.31" waitingCount="0" stopTime="0.00" timeLoss="1.41" rerouteNo="0" devices="tripinfo_37" vType="DEFAULT_VEHTYPE" speedFactor="1.02" vaporized=""/>
    <tripinfo id="48" depart="48.00" departLane="" departPos="0.00" departSpeed="22.16" departDelay="0.00" arrival="109.00" arrivalLane="" arrivalPos="143.59" arrivalSpeed="22.16" duration="61.00" routeLength="1330.63" waitingTime="0.00" waitingCount="0" stopTime="0.00" timeLoss="0.00" rerouteNo="0" devices="tripinfo_48" vType="DEFAULT_VEHTYPE" speedFactor="1.00" vaporized=""/>
    <tripinfo id="72" depart="76.00" departLane="" departPos="0.00" departSpeed="14.21" departDelay="0.00" arrival="109.00" arrivalLane="" arrivalPos="257.55" arrivalSpeed="28.42" duration="33.00" routeLength="854.05" waitingTime="0.00" waitingCount="0" stopTime="0.00" timeLoss="0.00" rerouteNo="0" devices="tripinfo_72" vType="DEFAULT_VEHTYPE" speedFactor="1.02" vaporized=""/>
    <tripinfo id="79" depart="81.00" departLane="" departPos="0.00" departSpeed="12.10" departDelay="0.00" arrival="109.00" arrivalLane="" arrivalPos="71.22" arrivalSpeed="13.64" duration="28.00" routeLength="617.84" waitingTime="0.00" waitingCount="0" stopTime="0.00" timeLoss="0.43" rerouteNo="0" devices="tripinfo_79" vType="DEFAULT_VEHTYPE" speedFactor="0.98" vaporized=""/>
    <tripinfo id="41" depart="43.00" departLane="" departPos="0.00" departSpeed="12.51" departDelay="0.00" arrival="110.00" arrivalLane="" arrivalPos="325.99" arrivalSpeed="20.01" duration="67.00" routeLength="1300.17" waitingTime="0.00" waitingCount="0" stopTime="0.00" timeLoss="0.00" rerouteNo="0" devices="tripinfo_41" vType="DEFAULT_VEHTYPE" speedFactor="0.90" vaporized=""/>
    <tripinfo id="63" depart="63.00" departLane="" departPos="0.00" departSpeed="15.55" departDelay="0.00" arrival="110.00" arrivalLane="" arrivalPos="257.55" arrivalSpeed="28.42" duration="47.00" routeLength="1329.61" waitingTime="0.86" waitingCount="0" stopTime="0.00" timeLoss="2.69" rerouteNo="0" devices="tripinfo_63" vType="DEFAULT_VEHTYPE" speedFactor="1.12" vaporized=""/>
    <tripinfo id="60" depart="61.00" departLane="" departPos="0.00" departSpeed="13.81" departDelay="0.00" arrival="111.00" arrivalLane="" arrivalPos="143.59" arrivalSpeed="22.74" duration="50.00" routeLength="1084.30" waitingTime="0.00" waitingCount="0" stopTime="0.00" timeLoss="0.15" rerouteNo="0" devices="tripinfo_60" vType="DEFAULT_VEHTYPE" speedFactor="1.02" vaporized=""/>
    <tripinfo id="19" depart="25.00" departLane="" departPos="0.00" departSpeed="20.92" departDelay="0.00" arrival="112.00" arrivalLane="" arrivalPos="294.40" arrivalSpeed="26.15" duration="87.00" routeLength="1580.63" waitingTime="0.00" waitingCount="0" stopTime="0.00" timeLoss="0.00" rerouteNo="0" devices="tripinfo_19" vType="DEFAULT_VEHTYPE" speedFactor="0.94" vaporized=""/>
    <tripinfo id="47" depart="47.00" departLane="" departPos="0.00" departSpeed="30.22" departDelay="0.00" arrival="114.00" arrivalLane="" arrivalPos="325.99" arrivalSpeed="24.17" duration="67.00" routeLength="1674.93" waitingTime="0.83" waitingCount="0" stopTime="0.00" timeLoss="1.71" rerouteNo="0" devices="tripinfo_47" vType="DEFAULT_VEHTYPE" speedFactor="1.09" vaporized=""/>
    <tripinfo id="74" depart="77.00" departLane="" departPos="0.00" departSpeed="12.53" departDelay="0.00" arrival="114.00" arrivalLane="" arrivalPos="257.55" arrivalSpeed="26.12" duration="37.00" routeLength="854.05" waitingTime="0.52" waitingCount="0" stopTime="0.00" timeLoss="0.75" rerouteNo="0" devices="tripinfo_74" vType="DEFAULT_VEHTYPE" speedFactor="0.94" vaporized=""/>
    <tripinfo id="18" depart="25.00" departLane="" departPos="0.00" departSpeed="19.52" departDelay="0.00" arrival="115.00" arrivalLane="" arrivalPos="294.40" arrivalSpeed="24.40" duration="90.00" routeLength="1887.77" waitingTime="0.00" waitingCount="0" stopTime="0.00" timeLoss="0.00" rerouteNo="0" devices="tripinfo_18" vType="DEFAULT_VEHTYPE" speedFactor="0.88" vaporized=""/>
    <tripinfo id="49" depart="48.00" departLane="" departPos="0.00" departSpeed="16.75" departDelay="0.00" arrival="116.00" arrivalLane="" arrivalPos="143.59" arrivalSpeed="20.01" duration="68.00" routeLength="1330.63" waitingTime="0.00" waitingCount="0" stopTime="0.00" timeLoss="0.98" rerouteNo="0" devices="tripinfo_49" vType="DEFAULT_VEHTYPE" speedFactor="0.90" vaporized=""/>
    <tripinfo id="57" depart="58.00" departLane="" departPos="0.00" departSpeed="27.67" departDelay="0.00" arrival="120.00" arrivalLane="" arrivalPos="143.59" arrivalSpeed="22.13" duration="62.00" routeLength="1459.06" waitingTime="0.00" waitingCount="0" stopTime="0.00" timeLoss="0.00" rerouteNo="0" devices="tripinfo_57" vType="DEFAULT_VEHTYPE" speedFactor="1.00" vaporized=""/>
    <tripinfo id="80" depart="82.00" departLane="" departPos="0.00" departSpeed="10.31" departDelay="1.00" arrival="120.00" arrivalLane="" arrivalPos="100.00" arrivalSpeed="27.98" duration="38.00" routeLength="958.05" waitingTime="0.00" waitingCount="0" stopTime="0.00" timeLoss="1.19" rerouteNo="0" devices="tripinfo_80" vType="DEFAULT_VEHTYPE" speedFactor="1.01" vaporized=""/>
    <tripinfo id="81" depart="84.00" departLane="" departPos="0.00" departSpeed="11.13" departDelay="2.00" arrival="121.00" arrivalLane="" arrivalPos="100.00" arrivalSpeed="27.98" duration="37.00" routeLength="958.05" waitingTime="0.84" waitingCount="0" stopTime="0.00" timeLoss="2.54" rerouteNo="0" devices="tripinfo_81" vType="DEFAULT_VEHTYPE" speedFactor="1.09" vaporized=""/>
    <tripinfo id="45" depart="45.00" departLane="" departPos="0.00" departSpeed="23.06" departDelay="0.00" arrival="124.00" arrivalLane="" arrivalPos="806.12" arrivalSpeed="23.06" duration="79.00" routeLength="1811.89" waitingTime="0.00" waitingCount="0" stopTime="0.00" timeLoss="0.00" rerouteNo="0" devices="tripinfo_45" vType="DEFAULT_VEHTYPE" speedFactor="1.04" vaporized=""/>
    <tripinfo id="65" depart="63.00" departLane="" departPos="0.00" departSpeed="21.93" departDelay="0.00" arrival="124.00" arrivalLane="" arrivalPos="143.59" arrivalSpeed="21.93" duration="61.00" routeLength="1330.63" waitingTime="0.00" waitingCount="0" stopTime="0.00" timeLoss="0.00" rerouteNo="0" devices="tripinfo_65" vType="DEFAULT_VEHTYPE" speedFactor="0.99" vaporized=""/>
    <tripinfo id="54" depart="55.00" departLane="" departPos="0.00" departSpeed="14.12" departDelay="0.00" arrival="126.00" arrivalLane="" arrivalPos="806.12" arrivalSpeed="22.59" duration="71.00" routeLength="1295.54" waitingTime="0.43" waitingCount="0" stopTime="0.00" timeLoss="0.43" rerouteNo="0" devices="tripinfo_54" vType="DEFAULT_VEHTYPE" speedFactor="1.02" vaporized=""/>
    <tripinfo id="64" depart="63.00" departLane="" departPos="0.00" departSpeed="28.22" departDelay="0.00" arrival="126.00" arrivalLane="" arrivalPos="143.59" arrivalSpeed="22.57" duration="63.00" routeLength="1459.06" waitingTime="1.31" waitingCount="0" stopTime="0.00" timeLoss="2.24" rerouteNo="0" devices="tripinfo_64" vType="DEFAULT_VEHTYPE" speedFactor="1.02" vaporized=""/>
    <tripinfo id="55" depart="58.00" departLane="" departPos="0.00" departSpeed="24.35" departDelay="0.00" arrival="127.00" arrivalLane="" arrivalPos="143.59" arrivalSpeed="22.57" duration="69.00" routeLength="1532.30" waitingTime="1.47" waitingCount="0" stopTime="0.00" timeLoss="5.95" rerouteNo="0" devices="tripinfo_55" vType="DEFAULT_VEHTYPE" speedFactor="1.10" vaporized=""/>
    <tripinfo id="66" depart="64.00" departLane="" departPos="0.00" departSpeed="12.96" departDelay="0.00" arrival="128.00" arrivalLane="" arrivalPos="325.99" arrivalSpeed="20.83" duration="64.00" routeLength="1300.17" waitingTime="0.00" waitingCount="0" stopTime="0.00" timeLoss="0.03" rerouteNo="0" devices="tripinfo_66" vType="DEFAULT_VEHTYPE" speedFactor="0.94" vaporized=""/>
    <tripinfo id="78" depart="80.00" departLane="" departPos="0.00" departSpeed="28.68" departDelay="0.00" arrival="128.00" arrivalLane="" arrivalPos="38.78" arrivalSpeed="14.34" duration="48.00" routeLength="1301.36" waitingTime="0.44" waitingCount="0" stopTime="0.00" timeLoss="0.45" rerouteNo="0" devices="tripinfo_78" vType="DEFAULT_VEHTYPE" speedFactor="1.03" vaporized=""/>
    <tripinfo id="61" depart="62.00" departLane="" departPos="0.00" departSpeed="21.54" departDelay="0.00" arrival="129.00" arrivalLane="" arrivalPos="71.22" arrivalSpeed="13.47" duration="67.00" routeLength="1246.20" waitingTime="0.00" waitingCount="0" stopTime="0.00" timeLoss="0.00" rerouteNo="0" devices="tripinfo_61" vType="DEFAULT_VEHTYPE" speedFactor="0.97" vaporized=""/>
    <tripinfo id="77" depart="79.00" departLane="" departPos="0.00" departSpeed="11.15" departDelay="0.00" arrival="131.00" arrivalLane="" arrivalPos="257.55" arrivalSpeed="27.36" duration="52.00" routeLength="1329.61" waitingTime="0.00" waitingCount="0" stopTime="0.00" timeLoss="0.78" rerouteNo="0" devices="tripinfo_77" vType="DEFAULT_VEHTYPE" speedFactor="0.98" vaporized=""/>
    <tripinfo id="69" depart="69.00" departLane="" departPos="0.00" departSpeed="25.41" departDelay="0.00" arrival="132.00" arrivalLane="" arrivalPos="143.59" arrivalSpeed="20.32" duration="63.00" routeLength="1010.43" waitingTime="0.00" waitingCount="0" stopTime="0.00" timeLoss="0.00" rerouteNo="0" devices="tripinfo_69" vType="DEFAULT_VEHTYPE" speedFactor="0.91" vaporized=""/>
    <tripinfo id="83" depart="82.00" departLane="" departPos="0.00" departSpeed="27.73" departDelay="0.00" arrival="132.00" arrivalLane="" arrivalPos="257.55" arrivalSpeed="27.36" duration="50.00" routeLength="1324.09" waitingTime="1.15" waitingCount="0" stopTime="0.00" timeLoss="1.72" rerouteNo="0" devices="tripinfo_83" vType="DEFAULT_VEHTYPE" speedFactor="1.00" vaporized=""/>
    <tripinfo id="101" depart="99.00" departLane="" departPos="0.00" departSpeed="30.48" departDelay="0.00" arrival="133.00" arrivalLane="" arrivalPos="38.78" arrivalSpeed="15.24" duration="34.00" routeLength="969.47" waitingTime="0.00" waitingCount="0" stopTime="0.00" timeLoss="0.00" rerouteNo="0" devices="tripinfo_101" vType="DEFAULT_VEHTYPE" speedFactor="1.10" vaporized=""/>
    <tripinfo id="56" depart="58.00" departLane="" departPos="0.00" departSpeed="22.29" departDelay="0.00" arrival="136.00" arrivalLane="" arrivalPos="38.78" arrivalSpeed="13.93" duration="78.00" routeLength="1325.01" waitingTime="0.00" waitingCount="0" stopTime="0.00" timeLoss="3.67" rerouteNo="0" devices="tripinfo_56" vType="DEFAULT_VEHTYPE" speedFactor="1.00" vaporized=""/>
    <tripinfo id="58" depart="59.00" departLane="" departPos="0.00" departSpeed="19.97" departDelay="0.00" arrival="136.00" arrivalLane="" arrivalPos="325.99" arrivalSpeed="19.97" duration="77.00" routeLength="1534.17" waitingTime="0.00" waitingCount="0" stopTime="0.00" timeLoss="0.00" rerouteNo="0" devices="tripinfo_58" vType="DEFAULT_VEHTYPE" speedFactor="0.90" vaporized=""/>
    <tripinfo id="67" depart="67.00" departLane="" departPos="0.00" departSpeed="12.26" departDelay="0.00" arrival="136.00" arrivalLane="" arrivalPos="143.59" arrivalSpeed="19.60" duration="69.00" routeLength="1015.95" waitingTime="1.48" waitingCount="0" stopTime="0.00" timeLoss="1.48" rerouteNo="0" devices="tripinfo_67" vType="DEFAULT_VEHTYPE" speedFactor="0.88" vaporized=""/>
    <tripinfo id="84" depart="84.00" departLane="" departPos="0.00" departSpeed="14.12" departDelay="0.00" arrival="137.00" arrivalLane="" arrivalPos="143.59" arrivalSpeed="19.61" duration="53.00" routeLength="1084.30" waitingTime="0.00" waitingCount="0" stopTime="0.00" timeLoss="3.38" rerouteNo="0" devices="tripinfo_84" vType="DEFAULT_VEHTYPE" speedFactor="1.02" vaporized=""/>