<?xml version="1.0" encoding="UTF-8"?>

<!-- generated on 2023-04-04 16:40:23 by Eclipse SUMO sumo Version 1.16.0
<configuration xmlns:xsi="http://www.w3.org/2001/XMLSchema-instance" xsi:noNamespaceSchemaLocation="http://sumo.dlr.de/xsd/sumoConfiguration.xsd">

    <input>
        <net-file value="005/../configurations/maps/4corners_neighborhoods.net.xml"/>
        <route-files value="005/Trips_File_005.rou.xml"/>
        <additional-files value="005/../edgedata.add.xml"/>
    </input>

    <output>
        <output-prefix value="005/"/>
        <summary-output value="005/../summary_005.xml"/>
        <tripinfo-output value="005/../tripinfo_005.xml"/>
    </output>

    <time>
        <begin value="0"/>
    </time>

    <processing>
        <route-steps value="200"/>
        <no-internal-links value="False"/>
        <time-to-teleport value="300"/>
        <time-to-teleport.highways value="0"/>
        <eager-insert value="False"/>
    </processing>

    <report>
        <verbose value="true"/>
        <no-warnings value="False"/>
        <log value="005/../iteration_005.sumo.log"/>
        <no-step-log value="true"/>
    </report>

    <mesoscopic>
        <mesosim value="true"/>
        <meso-recheck value="0"/>
    </mesoscopic>

    <random_number>
        <random value="False"/>
    </random_number>

</configuration>
-->

<tripinfos xmlns:xsi="http://www.w3.org/2001/XMLSchema-instance" xsi:noNamespaceSchemaLocation="http://sumo.dlr.de/xsd/tripinfo_file.xsd">
    <tripinfo id="6" depart="9.00" departLane="" departPos="0.00" departSpeed="14.31" departDelay="0.00" arrival="34.00" arrivalLane="" arrivalPos="38.78" arrivalSpeed="14.31" duration="25.00" routeLength="594.71" waitingTime="0.00" waitingCount="0" stopTime="0.00" timeLoss="0.00" rerouteNo="0" devices="tripinfo_6" vType="DEFAULT_VEHTYPE" speedFactor="1.03" vaporized=""/>
    <tripinfo id="18" depart="18.00" departLane="" departPos="0.00" departSpeed="24.40" departDelay="0.00" arrival="56.00" arrivalLane="" arrivalPos="71.22" arrivalSpeed="12.20" duration="38.00" routeLength="848.93" waitingTime="0.00" waitingCount="0" stopTime="0.00" timeLoss="0.00" rerouteNo="0" devices="tripinfo_18" vType="DEFAULT_VEHTYPE" speedFactor="0.88" vaporized=""/>
    <tripinfo id="11" depart="14.00" departLane="" departPos="0.00" departSpeed="23.80" departDelay="0.00" arrival="57.00" arrivalLane="" arrivalPos="38.78" arrivalSpeed="11.90" duration="43.00" routeLength="969.47" waitingTime="0.00" waitingCount="0" stopTime="0.00" timeLoss="0.00" rerouteNo="0" devices="tripinfo_11" vType="DEFAULT_VEHTYPE" speedFactor="0.86" vaporized=""/>
    <tripinfo id="2" depart="5.00" departLane="" departPos="0.00" departSpeed="14.72" departDelay="0.00" arrival="61.00" arrivalLane="" arrivalPos="143.59" arrivalSpeed="23.55" duration="56.00" routeLength="1015.95" waitingTime="0.00" waitingCount="0" stopTime="0.00" timeLoss="0.00" rerouteNo="0" devices="tripinfo_2" vType="DEFAULT_VEHTYPE" speedFactor="1.06" vaporized=""/>
    <tripinfo id="27" depart="25.00" departLane="" departPos="0.00" departSpeed="24.24" departDelay="0.00" arrival="65.00" arrivalLane="" arrivalPos="100.00" arrivalSpeed="24.24" duration="40.00" routeLength="952.53" waitingTime="0.00" waitingCount="0" stopTime="0.00" timeLoss="0.00" rerouteNo="0" devices="tripinfo_27" vType="DEFAULT_VEHTYPE" speedFactor="0.87" vaporized=""/>
    <tripinfo id="34" depart="31.00" departLane="" departPos="0.00" departSpeed="27.92" departDelay="0.00" arrival="66.00" arrivalLane="" arrivalPos="100.00" arrivalSpeed="27.92" duration="35.00" routeLength="952.53" waitingTime="0.00" waitingCount="0" stopTime="0.00" timeLoss="0.00" rerouteNo="0" devices="tripinfo_34" vType="DEFAULT_VEHTYPE" speedFactor="1.01" vaporized=""/>
    <tripinfo id="39" depart="39.00" departLane="" departPos="0.00" departSpeed="16.38" departDelay="0.00" arrival="69.00" arrivalLane="" arrivalPos="294.40" arrivalSpeed="32.77" duration="30.00" routeLength="850.33" waitingTime="0.00" waitingCount="0" stopTime="0.00" timeLoss="1.09" rerouteNo="0" devices="tripinfo_39" vType="DEFAULT_VEHTYPE" speedFactor="1.18" vaporized=""/>
    <tripinfo id="12" depart="14.00" departLane="" departPos="0.00" departSpeed="15.15" departDelay="0.00" arrival="72.00" arrivalLane="" arrivalPos="806.12" arrivalSpeed="24.23" duration="58.00" routeLength="1363.89" waitingTime="0.00" waitingCount="0" stopTime="0.00" timeLoss="0.00" rerouteNo="0" devices="tripinfo_12" vType="DEFAULT_VEHTYPE" speedFactor="1.09" vaporized=""/>
    <tripinfo id="19" depart="18.00" departLane="" departPos="0.00" departSpeed="13.08" departDelay="0.00" arrival="72.00" arrivalLane="" arrivalPos="143.59" arrivalSpeed="20.92" duration="54.00" routeLength="1084.30" waitingTime="0.00" waitingCount="0" stopTime="0.00" timeLoss="0.00" rerouteNo="0" devices="tripinfo_19" vType="DEFAULT_VEHTYPE" speedFactor="0.94" vaporized=""/>
    <tripinfo id="25" depart="22.00" departLane="" departPos="0.00" departSpeed="24.71" departDelay="0.00" arrival="72.00" arrivalLane="" arrivalPos="294.40" arrivalSpeed="24.71" duration="50.00" routeLength="1225.09" waitingTime="0.03" waitingCount="0" stopTime="0.00" timeLoss="0.03" rerouteNo="0" devices="tripinfo_25" vType="DEFAULT_VEHTYPE" speedFactor="0.89" vaporized=""/>
    <tripinfo id="22" depart="20.00" departLane="" departPos="0.00" departSpeed="13.93" departDelay="0.00" arrival="73.00" arrivalLane="" arrivalPos="143.59" arrivalSpeed="20.92" duration="53.00" routeLength="1084.30" waitingTime="0.00" waitingCount="0" stopTime="0.00" timeLoss="3.48" rerouteNo="0" devices="tripinfo_22" vType="DEFAULT_VEHTYPE" speedFactor="1.02" vaporized=""/>
    <tripinfo id="33" depart="30.00" departLane="" departPos="0.00" departSpeed="16.03" departDelay="0.00" arrival="75.00" arrivalLane="" arrivalPos="143.59" arrivalSpeed="22.55" duration="45.00" routeLength="1084.30" waitingTime="0.00" waitingCount="0" stopTime="0.00" timeLoss="0.77" rerouteNo="0" devices="tripinfo_33" vType="DEFAULT_VEHTYPE" speedFactor="1.15" vaporized=""/>
    <tripinfo id="8" depart="11.00" departLane="" departPos="0.00" departSpeed="29.05" departDelay="0.00" arrival="78.00" arrivalLane="" arrivalPos="806.12" arrivalSpeed="23.24" duration="67.00" routeLength="1290.02" waitingTime="0.00" waitingCount="0" stopTime="0.00" timeLoss="0.00" rerouteNo="0" devices="tripinfo_8" vType="DEFAULT_VEHTYPE" speedFactor="1.05" vaporized=""/>
    <tripinfo id="51" depart="48.00" departLane="" departPos="0.00" departSpeed="10.12" departDelay="0.00" arrival="79.00" arrivalLane="" arrivalPos="38.78" arrivalSpeed="11.81" duration="31.00" routeLength="594.71" waitingTime="0.00" waitingCount="0" stopTime="0.00" timeLoss="1.00" rerouteNo="0" devices="tripinfo_51" vType="DEFAULT_VEHTYPE" speedFactor="0.85" vaporized=""/>
    <tripinfo id="20" depart="18.00" departLane="" departPos="0.00" departSpeed="26.01" departDelay="0.00" arrival="80.00" arrivalLane="" arrivalPos="143.59" arrivalSpeed="20.80" duration="62.00" routeLength="1010.43" waitingTime="0.79" waitingCount="0" stopTime="0.00" timeLoss="0.79" rerouteNo="0" devices="tripinfo_20" vType="DEFAULT_VEHTYPE" speedFactor="0.94" vaporized=""/>
    <tripinfo id="14" depart="15.00" departLane="" departPos="0.00" departSpeed="23.26" departDelay="0.00" arrival="81.00" arrivalLane="" arrivalPos="38.78" arrivalSpeed="11.81" duration="66.00" routeLength="1418.15" waitingTime="1.67" waitingCount="0" stopTime="0.00" timeLoss="7.21" rerouteNo="0" devices="tripinfo_14" vType="DEFAULT_VEHTYPE" speedFactor="1.05" vaporized=""/>
    <tripinfo id="21" depart="19.00" departLane="" departPos="0.00" departSpeed="16.09" departDelay="0.00" arrival="82.00" arrivalLane="" arrivalPos="143.59" arrivalSpeed="20.80" duration="63.00" routeLength="1015.95" waitingTime="0.00" waitingCount="0" stopTime="0.00" timeLoss="11.31" rerouteNo="0" devices="tripinfo_21" vType="DEFAULT_VEHTYPE" speedFactor="1.16" vaporized=""/>
    <tripinfo id="28" depart="26.00" departLane="" departPos="0.00" departSpeed="25.48" departDelay="0.00" arrival="83.00" arrivalLane="" arrivalPos="38.78" arrivalSpeed="11.81" duration="57.00" routeLength="1301.36" waitingTime="1.27" waitingCount="0" stopTime="0.00" timeLoss="3.57" rerouteNo="0" devices="tripinfo_28" vType="DEFAULT_VEHTYPE" speedFactor="0.92" vaporized=""/>
    <tripinfo id="35" depart="32.00" departLane="" departPos="0.00" departSpeed="16.28" departDelay="0.00" arrival="83.00" arrivalLane="" arrivalPos="143.59" arrivalSpeed="20.80" duration="51.00" routeLength="1084.30" waitingTime="1.02" waitingCount="0" stopTime="0.00" timeLoss="7.83" rerouteNo="0" devices="tripinfo_35" vType="DEFAULT_VEHTYPE" speedFactor="1.17" vaporized=""/>
    <tripinfo id="49" depart="46.00" departLane="" departPos="0.00" departSpeed="12.51" departDelay="0.00" arrival="83.00" arrivalLane="" arrivalPos="294.40" arrivalSpeed="25.01" duration="37.00" routeLength="850.33" waitingTime="0.00" waitingCount="0" stopTime="0.00" timeLoss="0.00" rerouteNo="0" devices="tripinfo_49" vType="DEFAULT_VEHTYPE" speedFactor="0.90" vaporized=""/>
    <tripinfo id="54" depart="48.00" departLane="" departPos="0.00" departSpeed="28.24" departDelay="0.00" arrival="83.00" arrivalLane="" arrivalPos="100.00" arrivalSpeed="28.25" duration="35.00" routeLength="952.53" waitingTime="0.61" waitingCount="0" stopTime="0.00" timeLoss="0.91" rerouteNo="0" devices="tripinfo_54" vType="DEFAULT_VEHTYPE" speedFactor="1.02" vaporized=""/>
    <tripinfo id="29" depart="26.00" departLane="" departPos="0.00" departSpeed="18.00" departDelay="0.00" arrival="84.00" arrivalLane="" arrivalPos="38.78" arrivalSpeed="11.80" duration="58.00" routeLength="1301.36" waitingTime="1.24" waitingCount="0" stopTime="0.00" timeLoss="6.99" rerouteNo="0" devices="tripinfo_29" vType="DEFAULT_VEHTYPE" speedFactor="0.95" vaporized=""/>
    <tripinfo id="24" depart="22.00" departLane="" departPos="0.00" departSpeed="21.66" departDelay="0.00" arrival="85.00" arrivalLane="" arrivalPos="143.59" arrivalSpeed="21.66" duration="63.00" routeLength="1330.63" waitingTime="0.74" waitingCount="0" stopTime="0.00" timeLoss="0.74" rerouteNo="0" devices="tripinfo_24" vType="DEFAULT_VEHTYPE" speedFactor="0.97" vaporized=""/>
    <tripinfo id="50" depart="46.00" departLane="" departPos="0.00" departSpeed="9.67" departDelay="0.00" arrival="86.00" arrivalLane="" arrivalPos="257.55" arrivalSpeed="24.36" duration="40.00" routeLength="854.05" waitingTime="0.00" waitingCount="0" stopTime="0.00" timeLoss="1.52" rerouteNo="0" devices="tripinfo_50" vType="DEFAULT_VEHTYPE" speedFactor="0.88" vaporized=""/>
    <tripinfo id="17" depart="16.00" departLane="" departPos="0.00" departSpeed="20.59" departDelay="0.00" arrival="87.00" arrivalLane="" arrivalPos="257.55" arrivalSpeed="24.36" duration="71.00" routeLength="1144.15" waitingTime="0.97" waitingCount="0" stopTime="0.00" timeLoss="1.54" rerouteNo="0" devices="tripinfo_17" vType="DEFAULT_VEHTYPE" speedFactor="0.93" vaporized=""/>
    <tripinfo id="5" depart="9.00" departLane="" departPos="0.00" departSpeed="24.06" departDelay="0.00" arrival="88.00" arrivalLane="" arrivalPos="294.40" arrivalSpeed="30.07" duration="79.00" routeLength="1887.77" waitingTime="1.27" waitingCount="0" stopTime="0.00" timeLoss="6.30" rerouteNo="0" devices="tripinfo_5" vType="DEFAULT_VEHTYPE" speedFactor="1.08" vaporized=""/>
    <tripinfo id="9" depart="11.00" departLane="" departPos="0.00" departSpeed="14.79" departDelay="0.00" arrival="88.00" arrivalLane="" arrivalPos="71.22" arrivalSpeed="12.31" duration="77.00" routeLength="1246.20" waitingTime="0.00" waitingCount="0" stopTime="0.00" timeLoss="3.74" rerouteNo="0" devices="tripinfo_9" vType="DEFAULT_VEHTYPE" speedFactor="0.89" vaporized=""/>
    <tripinfo id="23" depart="21.00" departLane="" departPos="0.00" departSpeed="22.45" departDelay="0.00" arrival="90.00" arrivalLane="" arrivalPos="325.99" arrivalSpeed="22.45" duration="69.00" routeLength="1534.17" waitingTime="0.00" waitingCount="0" stopTime="0.00" timeLoss="0.00" rerouteNo="0" devices="tripinfo_23" vType="DEFAULT_VEHTYPE" speedFactor="1.01" vaporized=""/>
    <tripinfo id="13" depart="14.00" departLane="" departPos="0.00" departSpeed="14.25" departDelay="0.00" arrival="91.00" arrivalLane="" arrivalPos="325.99" arrivalSpeed="22.45" duration="77.00" routeLength="1775.73" waitingTime="1.73" waitingCount="0" stopTime="0.00" timeLoss="2.62" rerouteNo="0" devices="tripinfo_13" vType="DEFAULT_VEHTYPE" speedFactor="1.03" vaporized=""/>
    <tripinfo id="61" depart="56.00" departLane="" departPos="0.00" departSpeed="13.47" departDelay="0.00" arrival="91.00" arrivalLane="" arrivalPos="294.40" arrivalSpeed="26.93" duration="35.00" routeLength="850.33" waitingTime="0.00" waitingCount="0" stopTime="0.00" timeLoss="0.45" rerouteNo="0" devices="tripinfo_61" vType="DEFAULT_VEHTYPE" speedFactor="0.97" vaporized=""/>
    <tripinfo id="3" depart="6.00" departLane="" departPos="0.00" departSpeed="20.85" departDelay="0.00" arrival="93.00" arrivalLane="" arrivalPos="294.40" arrivalSpeed="26.06" duration="87.00" routeLength="1580.63" waitingTime="0.00" waitingCount="0" stopTime="0.00" timeLoss="0.00" rerouteNo="0" devices="tripinfo_3" vType="DEFAULT_VEHTYPE" speedFactor="0.94" vaporized=""/>
    <tripinfo id="15" depart="15.00" departLane="" departPos="0.00" departSpeed="24.95" departDelay="0.00" arrival="93.00" arrivalLane="" arrivalPos="325.99" arrivalSpeed="22.45" duration="78.00" routeLength="1811.14" waitingTime="0.00" waitingCount="0" stopTime="0.00" timeLoss="4.70" rerouteNo="0" devices="tripinfo_15" vType="DEFAULT_VEHTYPE" speedFactor="1.12" vaporized=""/>
    <tripinfo id="48" depart="46.00" departLane="" departPos="0.00" departSpeed="13.85" departDelay="0.00" arrival="96.00" arrivalLane="" arrivalPos="257.55" arrivalSpeed="27.71" duration="50.00" routeLength="1329.61" waitingTime="0.00" waitingCount="0" stopTime="0.00" timeLoss="0.00" rerouteNo="0" devices="tripinfo_48" vType="DEFAULT_VEHTYPE" speedFactor="1.00" vaporized=""/>
    <tripinfo id="40" depart="40.00" departLane="" departPos="0.00" departSpeed="14.19" departDelay="0.00" arrival="98.00" arrivalLane="" arrivalPos="806.12" arrivalSpeed="24.49" duration="58.00" routeLength="1363.89" waitingTime="0.00" waitingCount="0" stopTime="0.00" timeLoss="0.37" rerouteNo="0" devices="tripinfo_40" vType="DEFAULT_VEHTYPE" speedFactor="1.10" vaporized=""/>
    <tripinfo id="74" depart="71.00" departLane="" departPos="0.00" departSpeed="13.06" departDelay="0.00" arrival="98.00" arrivalLane="" arrivalPos="38.78" arrivalSpeed="13.06" duration="27.00" routeLength="594.71" waitingTime="0.00" waitingCount="0" stopTime="0.00" timeLoss="0.00" rerouteNo="0" devices="tripinfo_74" vType="DEFAULT_VEHTYPE" speedFactor="0.94" vaporized=""/>
    <tripinfo id="32" depart="29.00" departLane="" departPos="0.00" departSpeed="26.19" departDelay="0.00" arrival="100.00" arrivalLane="" arrivalPos="806.12" arrivalSpeed="26.19" duration="71.00" routeLength="1811.89" waitingTime="0.00" waitingCount="0" stopTime="0.00" timeLoss="1.42" rerouteNo="0" devices="tripinfo_32" vType="DEFAULT_VEHTYPE" speedFactor="1.18" vaporized=""/>
    <tripinfo id="10" depart="12.00" departLane="" departPos="0.00" departSpeed="20.84" departDelay="0.00" arrival="101.00" arrivalLane="" arrivalPos="100.00" arrivalSpeed="26.05" duration="89.00" routeLength="1786.97" waitingTime="0.00" waitingCount="0" stopTime="0.00" timeLoss="0.00" rerouteNo="0" devices="tripinfo_10" vType="DEFAULT_VEHTYPE" speedFactor="0.94" vaporized=""/>
    <tripinfo id="30" depart="27.00" departLane="" departPos="0.00" departSpeed="25.15" departDelay="0.00" arrival="102.00" arrivalLane="" arrivalPos="100.00" arrivalSpeed="26.06" duration="75.00" routeLength="1606.44" waitingTime="1.17" waitingCount="0" stopTime="0.00" timeLoss="8.07" rerouteNo="0" devices="tripinfo_30" vType="DEFAULT_VEHTYPE" speedFactor="1.13" vaporized=""/>
    <tripinfo id="16" depart="16.00" departLane="" departPos="0.00" departSpeed="21.63" departDelay="0.00" arrival="103.00" arrivalLane="" arrivalPos="100.00" arrivalSpeed="27.53" duration="87.00" routeLength="1786.97" waitingTime="0.91" waitingCount="0" stopTime="0.00" timeLoss="2.82" rerouteNo="0" devices="tripinfo_16" vType="DEFAULT_VEHTYPE" speedFactor="0.99" vaporized=""/>
    <tripinfo id="4" depart="7.00" departLane="" departPos="0.00" departSpeed="19.01" departDelay="0.00" arrival="106.00" arrivalLane="" arrivalPos="257.55" arrivalSpeed="28.06" duration="99.00" routeLength="2030.30" waitingTime="1.38" waitingCount="0" stopTime="0.00" timeLoss="4.61" rerouteNo="0" devices="tripinfo_4" vType="DEFAULT_VEHTYPE" speedFactor="1.01" vaporized=""/>
    <tripinfo id="7" depart="11.00" departLane="" departPos="0.00" departSpeed="18.46" departDelay="0.00" arrival="106.00" arrivalLane="" arrivalPos="294.40" arrivalSpeed="23.08" duration="95.00" routeLength="1887.77" waitingTime="0.00" waitingCount="0" stopTime="0.00" timeLoss="0.00" rerouteNo="0" devices="tripinfo_7" vType="DEFAULT_VEHTYPE" speedFactor="0.83" vaporized=""/>
    <tripinfo id="31" depart="27.00" departLane="" departPos="0.00" departSpeed="25.87" departDelay="0.00" arrival="107.00" arrivalLane="" arrivalPos="325.99" arrivalSpeed="20.69" duration="80.00" routeLength="1770.21" waitingTime="0.00" waitingCount="0" stopTime="0.00" timeLoss="0.00" rerouteNo="0" devices="tripinfo_31" vType="DEFAULT_VEHTYPE" speedFactor="0.93" vaporized=""/>
    <tripinfo id="56" depart="51.00" departLane="" departPos="0.00" departSpeed="27.87" departDelay="0.00" arrival="107.00" arrivalLane="" arrivalPos="294.40" arrivalSpeed="27.87" duration="56.00" routeLength="1556.98" waitingTime="0.00" waitingCount="0" stopTime="0.00" timeLoss="0.00" rerouteNo="0" devices="tripinfo_56" vType="DEFAULT_VEHTYPE" speedFactor="1.00" vaporized=""/>
    <tripinfo id="36" depart="33.00" departLane="" departPos="0.00" departSpeed="27.63" departDelay="0.00" arrival="109.00" arrivalLane="" arrivalPos="325.99" arrivalSpeed="20.69" duration="76.00" routeLength="1674.93" waitingTime="0.39" waitingCount="0" stopTime="0.00" timeLoss="4.01" rerouteNo="0" devices="tripinfo_36" vType="DEFAULT_VEHTYPE" speedFactor="0.99" vaporized=""/>
    <tripinfo id="77" depart="74.00" departLane="" departPos="0.00" departSpeed="27.36" departDelay="0.00" arrival="110.00" arrivalLane="" arrivalPos="100.00" arrivalSpeed="27.36" duration="36.00" routeLength="952.53" waitingTime="0.00" waitingCount="0" stopTime="0.00" timeLoss="0.25" rerouteNo="0" devices="tripinfo_77" vType="DEFAULT_VEHTYPE" speedFactor="0.98" vaporized=""/>
    <tripinfo id="45" depart="44.00" departLane="" departPos="0.00" departSpeed="28.83" departDelay="0.00" arrival="112.00" arrivalLane="" arrivalPos="806.12" arrivalSpeed="23.06" duration="68.00" routeLength="1290.02" waitingTime="0.00" waitingCount="0" stopTime="0.00" timeLoss="0.00" rerouteNo="0" devices="tripinfo_45" vType="DEFAULT_VEHTYPE" speedFactor="1.04" vaporized=""/>
    <tripinfo id="38" depart="38.00" departLane="" departPos="0.00" departSpeed="27.04" departDelay="0.00" arrival="114.00" arrivalLane="" arrivalPos="143.59" arrivalSpeed="21.62" duration="76.00" routeLength="1790.95" waitingTime="0.00" waitingCount="0" stopTime="0.00" timeLoss="0.64" rerouteNo="0" devices="tripinfo_38" vType="DEFAULT_VEHTYPE" speedFactor="0.97" vaporized=""/>
    <tripinfo id="71" depart="70.00" departLane="" departPos="0.00" departSpeed="28.39" departDelay="0.00" arrival="114.00" arrivalLane="" arrivalPos="294.40" arrivalSpeed="28.39" duration="44.00" routeLength="1225.09" waitingTime="0.50" waitingCount="0" stopTime="0.00" timeLoss="0.50" rerouteNo="0" devices="tripinfo_71" vType="DEFAULT_VEHTYPE" speedFactor="1.02" vaporized=""/>
    <tripinfo id="84" depart="78.00" departLane="" departPos="0.00" departSpeed="14.12" departDelay="0.00" arrival="114.00" arrivalLane="" arrivalPos="100.00" arrivalSpeed="28.25" duration="36.00" routeLength="958.05" waitingTime="0.00" waitingCount="0" stopTime="0.00" timeLoss="0.00" rerouteNo="0" devices="tripinfo_84" vType="DEFAULT_VEHTYPE" speedFactor="1.02" vaporized=""/>
    <tripinfo id="44" depart="44.00" departLane="" departPos="0.00" departSpeed="24.26" departDelay="0.00" arrival="116.00" arrivalLane="" arrivalPos="294.40" arrivalSpeed="30.33" duration="72.00" routeLength="1887.77" waitingTime="0.00" waitingCount="0" stopTime="0.00" timeLoss="0.00" rerouteNo="0" devices="tripinfo_44" vType="DEFAULT_VEHTYPE" speedFactor="1.09" vaporized=""/>
    <tripinfo id="59" depart="55.00" departLane="" departPos="0.00" departSpeed="25.39" departDelay="0.00" arrival="116.00" arrivalLane="" arrivalPos="143.59" arrivalSpeed="25.39" duration="61.00" routeLength="1532.30" waitingTime="0.00" waitingCount="0" stopTime="0.00" timeLoss="0.36" rerouteNo="0" devices="tripinfo_59" vType="DEFAULT_VEHTYPE" speedFactor="1.14" vaporized=""/>
    <tripinfo id="88" depart="83.00" departLane="" departPos="0.00" departSpeed="13.91" departDelay="0.00" arrival="117.00" arrivalLane="" arrivalPos="257.55" arrivalSpeed="27.83" duration="34.00" routeLength="854.05" waitingTime="0.00" waitingCount="0" stopTime="0.00" timeLoss="0.00" rerouteNo="0" devices="tripinfo_88" vType="DEFAULT_VEHTYPE" speedFactor="1.00" vaporized=""/>
    <tripinfo id="46" depart="44.00" departLane="" departPos="0.00" departSpeed="18.29" departDelay="0.00" arrival="118.00" arrivalLane="" arrivalPos="100.00" arrivalSpeed="28.99" duration="74.00" routeLength="1606.44" waitingTime="0.00" waitingCount="0" stopTime="0.00" timeLoss="1.26" rerouteNo="0" devices="tripinfo_46" vType="DEFAULT_VEHTYPE" speedFactor="1.04" vaporized=""/>
    <tripinfo id="57" depart="52.00" departLane="" departPos="0.00" departSpeed="22.13" departDelay="0.00" arrival="118.00" arrivalLane="" arrivalPos="257.55" arrivalSpeed="27.67" duration="66.00" routeLength="1144.15" waitingTime="1.17" waitingCount="0" stopTime="0.00" timeLoss="1.17" rerouteNo="0" devices="tripinfo_57" vType="DEFAULT_VEHTYPE" speedFactor="1.00" vaporized=""/>
    <tripinfo id="55" depart="49.00" departLane="" departPos="0.00" departSpeed="24.35" departDelay="0.00" arrival="119.00" arrivalLane="" arrivalPos="100.00" arrivalSpeed="30.44" duration="70.00" routeLength="1606.44" waitingTime="0.06" waitingCount="0" stopTime="0.00" timeLoss="0.96" rerouteNo="0" devices="tripinfo_55" vType="DEFAULT_VEHTYPE" speedFactor="1.10" vaporized=""/>
    <tripinfo id="37" depart="34.00" departLane="" departPos="0.00" departSpeed="28.32" departDelay="0.00" arrival="120.00" arrivalLane="" arrivalPos="806.12" arrivalSpeed="22.66" duration="86.00" routeLength="2070.54" waitingTime="0.52" waitingCount="0" stopTime="0.00" timeLoss="1.39" rerouteNo="0" devices="tripinfo_37" vType="DEFAULT_VEHTYPE" speedFactor="1.02" vaporized=""/>
    <tripinfo id="43" depart="43.00" departLane="" departPos="0.00" departSpeed="26.59" departDelay="0.00" arrival="120.00" arrivalLane="" arrivalPos="325.99" arrivalSpeed="21.26" duration="77.00" routeLength="1674.93" waitingTime="0.62" waitingCount="0" stopTime="0.00" timeLoss="2.09" rerouteNo="0" devices="tripinfo_43" vType="DEFAULT_VEHTYPE" speedFactor="0.96" vaporized=""/>
    <tripinfo id="60" depart="56.00" departLane="" departPos="0.00" departSpeed="22.74" departDelay="0.00" arrival="120.00" arrivalLane="" arrivalPos="257.55" arrivalSpeed="28.44" duration="64.00" routeLength="1144.15" waitingTime="0.00" waitingCount="0" stopTime="0.00" timeLoss="0.33" rerouteNo="0" devices="tripinfo_60" vType="DEFAULT_VEHTYPE" speedFactor="1.02" vaporized=""/>
    <tripinfo id="101" depart="91.00" departLane="" departPos="0.00" departSpeed="30.48" departDelay="0.00" arrival="122.00" arrivalLane="" arrivalPos="71.22" arrivalSpeed="15.24" duration="31.00" routeLength="848.93" waitingTime="0.00" waitingCount="0" stopTime="0.00" timeLoss="0.00" rerouteNo="0" devices="tripinfo_101" vType="DEFAULT_VEHTYPE" speedFactor="1.10" vaporized=""/>
    <tripinfo id="66" depart="63.00" departLane="" departPos="0.00" departSpeed="26.04" departDelay="0.00" arrival="124.00" arrivalLane="" arrivalPos="143.59" arrivalSpeed="20.83" duration="61.00" routeLength="1010.43" waitingTime="0.00" waitingCount="0" stopTime="0.00" timeLoss="0.00" rerouteNo="0" devices="tripinfo_66" vType="DEFAULT_VEHTYPE" speedFactor="0.94" vaporized=""/>
    <tripinfo id="80" depart="76.00" departLane="" departPos="0.00" departSpeed="27.98" departDelay="0.00" arrival="124.00" arrivalLane="" arrivalPos="38.78" arrivalSpeed="13.99" duration="48.00" routeLength="1301.36" waitingTime="0.00" waitingCount="0" stopTime="0.00" timeLoss="0.00" rerouteNo="0" devices="tripinfo_80" vType="DEFAULT_VEHTYPE" speedFactor="1.01" vaporized=""/>
    <tripinfo id="92" depart="85.00" departLane="" departPos="0.00" departSpeed="14.12" departDelay="0.00" arrival="124.00" arrivalLane="" arrivalPos="100.00" arrivalSpeed="28.24" duration="39.00" routeLength="958.05" waitingTime="0.06" waitingCount="0" stopTime="0.00" timeLoss="2.26" rerouteNo="0" devices="tripinfo_92" vType="DEFAULT_VEHTYPE" speedFactor="1.02" vaporized=""/>
    <tripinfo id="41" depart="40.00" departLane="" departPos="0.00" departSpeed="25.02" departDelay="0.00" arrival="125.00" arrivalLane="" arrivalPos="325.99" arrivalSpeed="20.01" duration="85.00" routeLength="1770.21" waitingTime="1.57" waitingCount="0" stopTime="0.00" timeLoss="1.57" rerouteNo="0" devices="tripinfo_41" vType="DEFAULT_VEHTYPE" speedFactor="0.90" vaporized=""/>
    <tripinfo id="42" depart="41.00" departLane="" departPos="0.00" departSpeed="14.31" departDelay="0.00" arrival="126.00" arrivalLane="" arrivalPos="325.99" arrivalSpeed="20.01" duration="85.00" routeLength="1775.73" waitingTime="2.84" waitingCount="0" stopTime="0.00" timeLoss="10.60" rerouteNo="0" devices="tripinfo_42" vType="DEFAULT_VEHTYPE" speedFactor="1.03" vaporized=""/>
    <tripinfo id="47" depart="45.00" departLane="" departPos="0.00" departSpeed="16.96" departDelay="0.00" arrival="126.00" arrivalLane="" arrivalPos="294.40" arrivalSpeed="30.22" duration="81.00" routeLength="1887.77" waitingTime="0.13" waitingCount="0" stopTime="0.00" timeLoss="8.38" rerouteNo="0" devices="tripinfo_47" vType="DEFAULT_VEHTYPE" speedFactor="1.09" vaporized=""/>
    <tripinfo id="63" depart="59.00" departLane="" departPos="0.00" departSpeed="24.87" departDelay="0.00" arrival="126.00" arrivalLane="" arrivalPos="143.59" arrivalSpeed="20.83" duration="67.00" routeLength="1532.30" waitingTime="0.61" waitingCount="0" stopTime="0.00" timeLoss="4.71" rerouteNo="0" devices="tripinfo_63" vType="DEFAULT_VEHTYPE" speedFactor="1.12" vaporized=""/>
    <tripinfo id="98" depart="88.00" departLane="" departPos="0.00" departSpeed="28.06" departDelay="0.00" arrival="126.00" arrivalLane="" arrivalPos="38.78" arrivalSpeed="13.98" duration="38.00" routeLength="969.47" waitingTime="1.59" waitingCount="0" stopTime="0.00" timeLoss="1.62" rerouteNo="0" devices="tripinfo_98" vType="DEFAULT_VEHTYPE" speedFactor="1.01" vaporized=""/>
    <tripinfo id="65" depart="61.00" departLane="" departPos="0.00" departSpeed="21.93" departDelay="0.00" arrival="127.00" arrivalLane="" arrivalPos="71.22" arrivalSpeed="13.71" duration="66.00" routeLength="1246.20" waitingTime="0.00" waitingCount="0" stopTime="0.00" timeLoss="0.03" rerouteNo="0" devices="tripinfo_65" vType="DEFAULT_VEHTYPE" speedFactor="0.99" vaporized=""/>
    <tripinfo id="99" depart="88.00" departLane="" departPos="0.00" departSpeed="25.18" departDelay="0.00" arrival="127.00" arrivalLane="" arrivalPos="100.00" arrivalSpeed="25.18" duration="39.00" routeLength="952.53" waitingTime="0.37" waitingCount="0" stopTime="0.00" timeLoss="0.37" rerouteNo="0" devices="tripinfo_99" vType="DEFAULT_VEHTYPE" speedFactor="0.91" vaporized=""/>
    <tripinfo id="52" depart="48.00" departLane="" departPos="0.00" departSpeed="19.00" departDelay="0.00" arrival="129.00" arrivalLane="" arrivalPos="294.40" arrivalSpeed="23.75" duration="81.00" routeLength="1673.77" waitingTime="0.11" waitingCount="0" stopTime="0.00" timeLoss="0.11" rerouteNo="0" devices="tripinfo_52" vType="DEFAULT_VEHTYPE" speedFactor="0.85" vaporized=""/>
    <tripinfo id="64" depart="60.00" departLane="" departPos="0.00" departSpeed="28.22" departDelay="0.00" arrival="129.00" arrivalLane="" arrivalPos="806.12" arrivalSpeed="22.57" duration="69.00" routeLength="1290.02" waitingTime="0.00" waitingCount="0" stopTime="0.00" timeLoss="0.00" rerouteNo="0" devices="tripinfo_64" vType="DEFAULT_VEHTYPE" speedFactor="1.02" vaporized=""/>
    <tripinfo id="75" depart="72.00" departLane="" departPos="0.00" departSpeed="11.63" departDelay="0.00" arrival="131.00" arrivalLane="" arrivalPos="325.99" arrivalSpeed="23.46" duration="59.00" routeLength="1300.17" waitingTime="0.00" waitingCount="0" stopTime="0.00" timeLoss="1.27" rerouteNo="0" devices="tripinfo_75" vType="DEFAULT_VEHTYPE" speedFactor="1.06" vaporized=""/>
    <tripinfo id="104" depart="94.00" departLane="" departPos="0.00" departSpeed="26.89" departDelay="0.00" arrival="131.00" arrivalLane="" arrivalPos="100.00" arrivalSpeed="26.90" duration="37.00" routeLength="952.53" waitingTime="0.32" waitingCount="0" stopTime="0.00" timeLoss="0.32" rerouteNo="0" devices="tripinfo_104" vType="DEFAULT_VEHTYPE" speedFactor="0.97" vaporized=""/>
    <tripinfo id="70" depart="69.00" departLane="" departPos="0.00" departSpeed="28.89" departDelay="0.00" arrival="132.00" arrivalLane="" arrivalPos="325.99" arrivalSpeed="23.11" duration="63.00" routeLength="1146.34" waitingTime="0.70" waitingCount="0" stopTime="0.00" timeLoss="0.70" rerouteNo="0" devices="tripinfo_70" vType="DEFAULT_VEHTYPE" speedFactor="1.04" vaporized=""/>
    <tripinfo id="106" depart="96.00" departLane="" departPos="0.00" departSpeed="12.42" departDelay="0.00" arrival="134.00" arrivalLane="" arrivalPos="257.55" arrivalSpeed="24.83" duration="38.00" routeLength="854.05" waitingTime="0.00" waitingCount="0" stopTime="0.00" timeLoss="0.00" rerouteNo="0" devices="tripinfo_106" vType="DEFAULT_VEHTYPE" speedFactor="0.89" vaporized=""/>