<?xml version="1.0" encoding="UTF-8"?>

<!-- generated on 2023-04-28 22:31:55 by Eclipse SUMO sumo Version 1.16.0
<configuration xmlns:xsi="http://www.w3.org/2001/XMLSchema-instance" xsi:noNamespaceSchemaLocation="http://sumo.dlr.de/xsd/sumoConfiguration.xsd">

    <input>
        <net-file value="C:\Users\Local_Man\Desktop\Stolen%20Music\school%20stuff%20for%20college\Semester%2015%20(UH%20Graduate%20School)\COSC%206364%20Nikolaos\SUMO_Project\COSC6364_Project\configurations\maps\Braess_Homebrew_fixed1.net.xml"/>
        <route-files value="./configurations/Rounds/Braess_Homebrew_fixed1.net.xml-test-2/Mesoscopic_DUE/007/Trips_File_007.rou.xml"/>
    </input>

    <output>
        <summary-output value="./configurations/Rounds/Braess_Homebrew_fixed1.net.xml-test-2/Mesoscopic_DUE/007/summary.xml"/>
        <tripinfo-output value="./configurations/Rounds/Braess_Homebrew_fixed1.net.xml-test-2/Mesoscopic_DUE/007/trips.trips.xml"/>
        <statistic-output value="./configurations/Rounds/Braess_Homebrew_fixed1.net.xml-test-2/Mesoscopic_DUE/007/stats_output.xml"/>
    </output>

    <time>
        <begin value="0"/>
    </time>

    <report>
        <log value="./configurations/Rounds/Braess_Homebrew_fixed1.net.xml-test-2/Mesoscopic_DUE/007/log.sumo.log"/>
        <no-step-log value="true"/>
    </report>

    <gui_only>
        <quit-on-end value="true"/>
    </gui_only>

</configuration>
-->

<tripinfos xmlns:xsi="http://www.w3.org/2001/XMLSchema-instance" xsi:noNamespaceSchemaLocation="http://sumo.dlr.de/xsd/tripinfo_file.xsd">
    <tripinfo id="2" depart="3.00" departLane="E0_0" departPos="5.10" departSpeed="0.00" departDelay="0.00" arrival="101.00" arrivalLane="E3_0" arrivalPos="90.46" arrivalSpeed="25.02" duration="98.00" routeLength="1317.38" waitingTime="0.00" waitingCount="0" stopTime="0.00" timeLoss="17.06" rerouteNo="0" devices="tripinfo_2" vType="DEFAULT_VEHTYPE" speedFactor="1.06" vaporized=""/>
    <tripinfo id="4" depart="9.00" departLane="E0_0" departPos="5.10" departSpeed="0.00" departDelay="1.00" arrival="105.00" arrivalLane="E3_0" arrivalPos="90.46" arrivalSpeed="29.04" duration="96.00" routeLength="1314.99" waitingTime="0.00" waitingCount="0" stopTime="0.00" timeLoss="15.30" rerouteNo="0" devices="tripinfo_4" vType="DEFAULT_VEHTYPE" speedFactor="1.01" vaporized=""/>
    <tripinfo id="5" depart="12.00" departLane="E0_0" departPos="5.10" departSpeed="0.00" departDelay="3.00" arrival="107.00" arrivalLane="E3_0" arrivalPos="90.46" arrivalSpeed="31.23" duration="95.00" routeLength="1314.99" waitingTime="0.00" waitingCount="0" stopTime="0.00" timeLoss="18.93" rerouteNo="0" devices="tripinfo_5" vType="DEFAULT_VEHTYPE" speedFactor="1.08" vaporized=""/>
    <tripinfo id="3" depart="6.00" departLane="E0_0" departPos="5.10" departSpeed="0.00" departDelay="3.00" arrival="113.00" arrivalLane="E3_0" arrivalPos="90.46" arrivalSpeed="24.33" duration="107.00" routeLength="1317.38" waitingTime="0.00" waitingCount="0" stopTime="0.00" timeLoss="15.73" rerouteNo="0" devices="tripinfo_3" vType="DEFAULT_VEHTYPE" speedFactor="0.94" vaporized=""/>
    <tripinfo id="6" depart="15.00" departLane="E0_0" departPos="5.10" departSpeed="0.00" departDelay="5.00" arrival="119.00" arrivalLane="E3_0" arrivalPos="90.46" arrivalSpeed="25.23" duration="104.00" routeLength="1317.38" waitingTime="0.00" waitingCount="0" stopTime="0.00" timeLoss="20.73" rerouteNo="0" devices="tripinfo_6" vType="DEFAULT_VEHTYPE" speedFactor="1.03" vaporized=""/>
    <tripinfo id="8" depart="21.00" departLane="E0_0" departPos="5.10" departSpeed="0.00" departDelay="7.00" arrival="122.00" arrivalLane="E3_0" arrivalPos="90.46" arrivalSpeed="24.90" duration="101.00" routeLength="1317.38" waitingTime="0.00" waitingCount="0" stopTime="0.00" timeLoss="19.47" rerouteNo="0" devices="tripinfo_8" vType="DEFAULT_VEHTYPE" speedFactor="1.05" vaporized=""/>
    <tripinfo id="7" depart="18.00" departLane="E0_0" departPos="5.10" departSpeed="0.00" departDelay="6.00" arrival="132.00" arrivalLane="E3_0" arrivalPos="90.46" arrivalSpeed="23.97" duration="114.00" routeLength="1314.99" waitingTime="0.00" waitingCount="0" stopTime="0.00" timeLoss="15.26" rerouteNo="0" devices="tripinfo_7" vType="DEFAULT_VEHTYPE" speedFactor="0.83" vaporized=""/>
    <tripinfo id="9" depart="24.00" departLane="E0_0" departPos="5.10" departSpeed="0.00" departDelay="9.00" arrival="134.00" arrivalLane="E3_0" arrivalPos="90.46" arrivalSpeed="25.59" duration="110.00" routeLength="1314.99" waitingTime="0.00" waitingCount="0" stopTime="0.00" timeLoss="16.85" rerouteNo="0" devices="tripinfo_9" vType="DEFAULT_VEHTYPE" speedFactor="0.89" vaporized=""/>
    <tripinfo id="12" depart="33.00" departLane="E0_0" departPos="5.10" departSpeed="0.00" departDelay="13.00" arrival="135.00" arrivalLane="E3_0" arrivalPos="90.46" arrivalSpeed="28.61" duration="102.00" routeLength="1314.99" waitingTime="0.00" waitingCount="0" stopTime="0.00" timeLoss="26.52" rerouteNo="0" devices="tripinfo_12" vType="DEFAULT_VEHTYPE" speedFactor="1.09" vaporized=""/>
    <tripinfo id="14" depart="39.00" departLane="E0_0" departPos="5.10" departSpeed="0.00" departDelay="17.00" arrival="136.00" arrivalLane="E3_0" arrivalPos="90.46" arrivalSpeed="28.85" duration="97.00" routeLength="1314.99" waitingTime="0.00" waitingCount="0" stopTime="0.00" timeLoss="18.85" rerouteNo="0" devices="tripinfo_14" vType="DEFAULT_VEHTYPE" speedFactor="1.05" vaporized=""/>
    <tripinfo id="15" depart="42.00" departLane="E0_0" departPos="5.10" departSpeed="0.00" departDelay="19.00" arrival="138.00" arrivalLane="E3_0" arrivalPos="90.46" arrivalSpeed="30.44" duration="96.00" routeLength="1314.99" waitingTime="0.00" waitingCount="0" stopTime="0.00" timeLoss="22.48" rerouteNo="0" devices="tripinfo_15" vType="DEFAULT_VEHTYPE" speedFactor="1.12" vaporized=""/>
    <tripinfo id="17" depart="48.00" departLane="E0_0" departPos="5.10" departSpeed="0.00" departDelay="24.00" arrival="151.00" arrivalLane="E3_0" arrivalPos="90.46" arrivalSpeed="27.00" duration="103.00" routeLength="1314.99" waitingTime="0.00" waitingCount="0" stopTime="0.00" timeLoss="13.73" rerouteNo="0" devices="tripinfo_17" vType="DEFAULT_VEHTYPE" speedFactor="0.93" vaporized=""/>
    <tripinfo id="18" depart="51.00" departLane="E0_0" departPos="5.10" departSpeed="0.00" departDelay="27.00" arrival="158.00" arrivalLane="E3_0" arrivalPos="90.46" arrivalSpeed="25.67" duration="107.00" routeLength="1314.99" waitingTime="0.00" waitingCount="0" stopTime="0.00" timeLoss="13.30" rerouteNo="0" devices="tripinfo_18" vType="DEFAULT_VEHTYPE" speedFactor="0.88" vaporized=""/>
    <tripinfo id="20" depart="57.00" departLane="E0_0" departPos="5.10" departSpeed="0.00" departDelay="28.00" arrival="160.00" arrivalLane="E3_0" arrivalPos="90.46" arrivalSpeed="27.55" duration="103.00" routeLength="1314.99" waitingTime="0.00" waitingCount="0" stopTime="0.00" timeLoss="15.35" rerouteNo="0" devices="tripinfo_20" vType="DEFAULT_VEHTYPE" speedFactor="0.94" vaporized=""/>
    <tripinfo id="22" depart="63.00" departLane="E0_0" departPos="5.10" departSpeed="0.00" departDelay="31.00" arrival="162.00" arrivalLane="E3_0" arrivalPos="90.46" arrivalSpeed="30.33" duration="99.00" routeLength="1314.99" waitingTime="0.00" waitingCount="0" stopTime="0.00" timeLoss="17.97" rerouteNo="0" devices="tripinfo_22" vType="DEFAULT_VEHTYPE" speedFactor="1.02" vaporized=""/>
    <tripinfo id="23" depart="66.00" departLane="E0_0" departPos="5.10" departSpeed="0.00" departDelay="34.00" arrival="163.00" arrivalLane="E3_0" arrivalPos="90.46" arrivalSpeed="29.97" duration="97.00" routeLength="1314.99" waitingTime="0.00" waitingCount="0" stopTime="0.00" timeLoss="15.59" rerouteNo="0" devices="tripinfo_23" vType="DEFAULT_VEHTYPE" speedFactor="1.01" vaporized=""/>
    <tripinfo id="24" depart="69.00" departLane="E0_0" departPos="5.10" departSpeed="0.00" departDelay="36.00" arrival="168.00" arrivalLane="E3_0" arrivalPos="90.46" arrivalSpeed="28.21" duration="99.00" routeLength="1314.99" waitingTime="0.00" waitingCount="0" stopTime="0.00" timeLoss="14.66" rerouteNo="0" devices="tripinfo_24" vType="DEFAULT_VEHTYPE" speedFactor="0.97" vaporized=""/>
    <tripinfo id="10" depart="27.00" departLane="E0_0" departPos="5.10" departSpeed="0.00" departDelay="12.00" arrival="178.00" arrivalLane="E3_0" arrivalPos="90.46" arrivalSpeed="25.41" duration="151.00" routeLength="1317.38" waitingTime="36.00" waitingCount="1" stopTime="0.00" timeLoss="59.15" rerouteNo="0" devices="tripinfo_10" vType="DEFAULT_VEHTYPE" speedFactor="0.94" vaporized=""/>
    <tripinfo id="11" depart="30.00" departLane="E0_0" departPos="5.10" departSpeed="0.00" departDelay="13.00" arrival="180.00" arrivalLane="E3_0" arrivalPos="90.46" arrivalSpeed="25.57" duration="150.00" routeLength="1317.38" waitingTime="28.00" waitingCount="1" stopTime="0.00" timeLoss="49.47" rerouteNo="0" devices="tripinfo_11" vType="DEFAULT_VEHTYPE" speedFactor="0.86" vaporized=""/>
    <tripinfo id="13" depart="36.00" departLane="E0_0" departPos="5.10" departSpeed="0.00" departDelay="16.00" arrival="181.00" arrivalLane="E3_0" arrivalPos="90.46" arrivalSpeed="25.38" duration="145.00" routeLength="1317.38" waitingTime="27.00" waitingCount="1" stopTime="0.00" timeLoss="61.74" rerouteNo="0" devices="tripinfo_13" vType="DEFAULT_VEHTYPE" speedFactor="1.03" vaporized=""/>
    <tripinfo id="29" depart="85.00" departLane="E0_0" departPos="5.10" departSpeed="0.00" departDelay="48.00" arrival="187.00" arrivalLane="E3_0" arrivalPos="90.46" arrivalSpeed="27.64" duration="102.00" routeLength="1314.99" waitingTime="0.00" waitingCount="0" stopTime="0.00" timeLoss="15.45" rerouteNo="0" devices="tripinfo_29" vType="DEFAULT_VEHTYPE" speedFactor="0.95" vaporized=""/>
    <tripinfo id="31" depart="91.00" departLane="E0_0" departPos="5.10" departSpeed="0.00" departDelay="54.00" arrival="193.00" arrivalLane="E3_0" arrivalPos="90.46" arrivalSpeed="26.96" duration="102.00" routeLength="1314.99" waitingTime="0.00" waitingCount="0" stopTime="0.00" timeLoss="13.92" rerouteNo="0" devices="tripinfo_31" vType="DEFAULT_VEHTYPE" speedFactor="0.93" vaporized=""/>
    <tripinfo id="32" depart="93.00" departLane="E0_0" departPos="5.10" departSpeed="0.00" departDelay="55.00" arrival="195.00" arrivalLane="E3_0" arrivalPos="90.46" arrivalSpeed="31.94" duration="102.00" routeLength="1314.99" waitingTime="0.00" waitingCount="0" stopTime="0.00" timeLoss="31.73" rerouteNo="0" devices="tripinfo_32" vType="DEFAULT_VEHTYPE" speedFactor="1.18" vaporized=""/>
    <tripinfo id="33" depart="96.00" departLane="E0_0" departPos="5.10" departSpeed="0.00" departDelay="58.00" arrival="196.00" arrivalLane="E3_0" arrivalPos="90.46" arrivalSpeed="31.91" duration="100.00" routeLength="1314.99" waitingTime="0.00" waitingCount="0" stopTime="0.00" timeLoss="28.51" rerouteNo="0" devices="tripinfo_33" vType="DEFAULT_VEHTYPE" speedFactor="1.15" vaporized=""/>
    <tripinfo id="35" depart="102.00" departLane="E0_0" departPos="5.10" departSpeed="0.00" departDelay="63.00" arrival="197.00" arrivalLane="E3_0" arrivalPos="90.46" arrivalSpeed="30.48" duration="95.00" routeLength="1314.99" waitingTime="0.00" waitingCount="0" stopTime="0.00" timeLoss="25.45" rerouteNo="0" devices="tripinfo_35" vType="DEFAULT_VEHTYPE" speedFactor="1.17" vaporized=""/>
    <tripinfo id="37" depart="108.00" departLane="E0_0" departPos="5.10" departSpeed="0.00" departDelay="68.00" arrival="204.00" arrivalLane="E3_0" arrivalPos="90.46" arrivalSpeed="29.32" duration="96.00" routeLength="1314.99" waitingTime="0.00" waitingCount="0" stopTime="0.00" timeLoss="15.15" rerouteNo="0" devices="tripinfo_37" vType="DEFAULT_VEHTYPE" speedFactor="1.02" vaporized=""/>
    <tripinfo id="39" depart="114.00" departLane="E0_0" departPos="5.10" departSpeed="0.00" departDelay="69.00" arrival="205.00" arrivalLane="E3_0" arrivalPos="90.46" arrivalSpeed="30.64" duration="91.00" routeLength="1314.99" waitingTime="0.00" waitingCount="0" stopTime="0.00" timeLoss="21.52" rerouteNo="0" devices="tripinfo_39" vType="DEFAULT_VEHTYPE" speedFactor="1.18" vaporized=""/>
    <tripinfo id="40" depart="117.00" departLane="E0_0" departPos="5.10" departSpeed="0.00" departDelay="71.00" arrival="208.00" arrivalLane="E3_0" arrivalPos="90.46" arrivalSpeed="32.59" duration="91.00" routeLength="1314.99" waitingTime="0.00" waitingCount="0" stopTime="0.00" timeLoss="16.06" rerouteNo="0" devices="tripinfo_40" vType="DEFAULT_VEHTYPE" speedFactor="1.10" vaporized=""/>
    <tripinfo id="16" depart="45.00" departLane="E0_0" departPos="5.10" departSpeed="0.00" departDelay="22.00" arrival="217.00" arrivalLane="E3_0" arrivalPos="90.46" arrivalSpeed="26.88" duration="172.00" routeLength="1317.38" waitingTime="55.00" waitingCount="2" stopTime="0.00" timeLoss="85.04" rerouteNo="0" devices="tripinfo_16" vType="DEFAULT_VEHTYPE" speedFactor="0.99" vaporized=""/>
    <tripinfo id="19" depart="54.00" departLane="E0_0" departPos="5.10" departSpeed="0.00" departDelay="26.00" arrival="219.00" arrivalLane="E3_0" arrivalPos="90.46" arrivalSpeed="26.79" duration="165.00" routeLength="1317.38" waitingTime="47.00" waitingCount="2" stopTime="0.00" timeLoss="73.47" rerouteNo="0" devices="tripinfo_19" vType="DEFAULT_VEHTYPE" speedFactor="0.94" vaporized=""/>
    <tripinfo id="41" depart="120.00" departLane="E0_0" departPos="5.10" departSpeed="0.00" departDelay="74.00" arrival="225.00" arrivalLane="E3_0" arrivalPos="90.46" arrivalSpeed="25.81" duration="105.00" routeLength="1314.99" waitingTime="0.00" waitingCount="0" stopTime="0.00" timeLoss="14.00" rerouteNo="0" devices="tripinfo_41" vType="DEFAULT_VEHTYPE" speedFactor="0.90" vaporized=""/>
    <tripinfo id="42" depart="123.00" departLane="E0_0" departPos="5.10" departSpeed="0.00" departDelay="77.00" arrival="227.00" arrivalLane="E3_0" arrivalPos="90.46" arrivalSpeed="30.52" duration="104.00" routeLength="1314.99" waitingTime="0.00" waitingCount="0" stopTime="0.00" timeLoss="23.68" rerouteNo="0" devices="tripinfo_42" vType="DEFAULT_VEHTYPE" speedFactor="1.03" vaporized=""/>
    <tripinfo id="44" depart="129.00" departLane="E0_0" departPos="5.10" departSpeed="0.00" departDelay="78.00" arrival="228.00" arrivalLane="E3_0" arrivalPos="90.46" arrivalSpeed="29.87" duration="99.00" routeLength="1314.99" waitingTime="0.00" waitingCount="0" stopTime="0.00" timeLoss="23.66" rerouteNo="0" devices="tripinfo_44" vType="DEFAULT_VEHTYPE" speedFactor="1.09" vaporized=""/>
    <tripinfo id="45" depart="132.00" departLane="E0_0" departPos="5.10" departSpeed="0.00" departDelay="81.00" arrival="229.00" arrivalLane="E3_0" arrivalPos="90.46" arrivalSpeed="29.65" duration="97.00" routeLength="1314.99" waitingTime="0.00" waitingCount="0" stopTime="0.00" timeLoss="18.10" rerouteNo="0" devices="tripinfo_45" vType="DEFAULT_VEHTYPE" speedFactor="1.04" vaporized=""/>
    <tripinfo id="46" depart="135.00" departLane="E0_0" departPos="5.10" departSpeed="0.00" departDelay="83.00" arrival="231.00" arrivalLane="E3_0" arrivalPos="90.46" arrivalSpeed="30.68" duration="96.00" routeLength="1314.99" waitingTime="0.00" waitingCount="0" stopTime="0.00" timeLoss="16.90" rerouteNo="0" devices="tripinfo_46" vType="DEFAULT_VEHTYPE" speedFactor="1.04" vaporized=""/>
    <tripinfo id="48" depart="141.00" departLane="E0_0" departPos="5.10" departSpeed="0.00" departDelay="88.00" arrival="239.00" arrivalLane="E3_0" arrivalPos="90.46" arrivalSpeed="29.20" duration="98.00" routeLength="1314.99" waitingTime="0.00" waitingCount="0" stopTime="0.00" timeLoss="15.77" rerouteNo="0" devices="tripinfo_48" vType="DEFAULT_VEHTYPE" speedFactor="1.00" vaporized=""/>
    <tripinfo id="21" depart="60.00" departLane="E0_0" departPos="5.10" departSpeed="0.00" departDelay="29.00" arrival="248.00" arrivalLane="E3_0" arrivalPos="90.46" arrivalSpeed="23.42" duration="188.00" routeLength="1317.38" waitingTime="70.00" waitingCount="3" stopTime="0.00" timeLoss="114.23" rerouteNo="0" devices="tripinfo_21" vType="DEFAULT_VEHTYPE" speedFactor="1.16" vaporized=""/>
    <tripinfo id="50" depart="147.00" departLane="E0_0" departPos="5.10" departSpeed="0.00" departDelay="89.00" arrival="254.00" arrivalLane="E3_0" arrivalPos="90.46" arrivalSpeed="25.05" duration="107.00" routeLength="1314.99" waitingTime="0.00" waitingCount="0" stopTime="0.00" timeLoss="13.68" rerouteNo="0" devices="tripinfo_50" vType="DEFAULT_VEHTYPE" speedFactor="0.88" vaporized=""/>
    <tripinfo id="57" depart="168.00" departLane="E0_0" departPos="5.10" departSpeed="0.00" departDelay="107.00" arrival="263.00" arrivalLane="E3_0" arrivalPos="90.46" arrivalSpeed="29.33" duration="95.00" routeLength="1314.99" waitingTime="0.00" waitingCount="0" stopTime="0.00" timeLoss="12.60" rerouteNo="0" devices="tripinfo_57" vType="DEFAULT_VEHTYPE" speedFactor="1.00" vaporized=""/>
    <tripinfo id="25" depart="72.00" departLane="E0_0" departPos="5.10" departSpeed="0.00" departDelay="39.00" arrival="272.00" arrivalLane="E3_0" arrivalPos="90.46" arrivalSpeed="26.55" duration="200.00" routeLength="1317.38" waitingTime="70.00" waitingCount="3" stopTime="0.00" timeLoss="103.67" rerouteNo="0" devices="tripinfo_25" vType="DEFAULT_VEHTYPE" speedFactor="0.89" vaporized=""/>
    <tripinfo id="58" depart="171.00" departLane="E0_0" departPos="5.10" departSpeed="0.00" departDelay="110.00" arrival="277.00" arrivalLane="E3_0" arrivalPos="90.46" arrivalSpeed="26.91" duration="106.00" routeLength="1314.99" waitingTime="0.00" waitingCount="0" stopTime="0.00" timeLoss="14.13" rerouteNo="0" devices="tripinfo_58" vType="DEFAULT_VEHTYPE" speedFactor="0.90" vaporized=""/>
    <tripinfo id="60" depart="177.00" departLane="E0_0" departPos="5.10" departSpeed="0.00" departDelay="114.00" arrival="278.00" arrivalLane="E3_0" arrivalPos="90.46" arrivalSpeed="28.74" duration="101.00" routeLength="1314.99" waitingTime="0.00" waitingCount="0" stopTime="0.00" timeLoss="20.77" rerouteNo="0" devices="tripinfo_60" vType="DEFAULT_VEHTYPE" speedFactor="1.02" vaporized=""/>
    <tripinfo id="62" depart="183.00" departLane="E0_0" departPos="5.10" departSpeed="0.00" departDelay="119.00" arrival="279.00" arrivalLane="E3_0" arrivalPos="90.46" arrivalSpeed="27.49" duration="96.00" routeLength="1314.99" waitingTime="0.00" waitingCount="0" stopTime="0.00" timeLoss="20.76" rerouteNo="0" devices="tripinfo_62" vType="DEFAULT_VEHTYPE" speedFactor="1.08" vaporized=""/>
    <tripinfo id="64" depart="189.00" departLane="E0_0" departPos="5.10" departSpeed="0.00" departDelay="124.00" arrival="286.00" arrivalLane="E3_0" arrivalPos="90.46" arrivalSpeed="30.19" duration="97.00" routeLength="1314.99" waitingTime="0.00" waitingCount="0" stopTime="0.00" timeLoss="16.33" rerouteNo="0" devices="tripinfo_64" vType="DEFAULT_VEHTYPE" speedFactor="1.02" vaporized=""/>
    <tripinfo id="65" depart="192.00" departLane="E0_0" departPos="5.10" departSpeed="0.00" departDelay="124.00" arrival="290.00" arrivalLane="E3_0" arrivalPos="90.46" arrivalSpeed="28.58" duration="98.00" routeLength="1314.99" waitingTime="0.00" waitingCount="0" stopTime="0.00" timeLoss="14.66" rerouteNo="0" devices="tripinfo_65" vType="DEFAULT_VEHTYPE" speedFactor="0.99" vaporized=""/>
    <tripinfo id="66" depart="195.00" departLane="E0_0" departPos="5.10" departSpeed="0.00" departDelay="122.00" arrival="297.00" arrivalLane="E3_0" arrivalPos="90.46" arrivalSpeed="26.91" duration="102.00" routeLength="1314.99" waitingTime="0.00" waitingCount="0" stopTime="0.00" timeLoss="14.23" rerouteNo="0" devices="tripinfo_66" vType="DEFAULT_VEHTYPE" speedFactor="0.94" vaporized=""/>
    <tripinfo id="69" depart="204.00" departLane="E0_0" departPos="5.10" departSpeed="0.00" departDelay="128.00" arrival="307.00" arrivalLane="E3_0" arrivalPos="90.46" arrivalSpeed="26.56" duration="103.00" routeLength="1314.99" waitingTime="0.00" waitingCount="0" stopTime="0.00" timeLoss="13.13" rerouteNo="0" devices="tripinfo_69" vType="DEFAULT_VEHTYPE" speedFactor="0.91" vaporized=""/>
    <tripinfo id="70" depart="207.00" departLane="E0_0" departPos="5.10" departSpeed="0.00" departDelay="128.00" arrival="308.00" arrivalLane="E3_0" arrivalPos="90.46" arrivalSpeed="28.69" duration="101.00" routeLength="1314.99" waitingTime="0.00" waitingCount="0" stopTime="0.00" timeLoss="22.39" rerouteNo="0" devices="tripinfo_70" vType="DEFAULT_VEHTYPE" speedFactor="1.04" vaporized=""/>
    <tripinfo id="72" depart="213.00" departLane="E0_0" departPos="5.10" departSpeed="0.00" departDelay="130.00" arrival="310.00" arrivalLane="E3_0" arrivalPos="90.46" arrivalSpeed="30.08" duration="97.00" routeLength="1314.99" waitingTime="0.00" waitingCount="0" stopTime="0.00" timeLoss="16.61" rerouteNo="0" devices="tripinfo_72" vType="DEFAULT_VEHTYPE" speedFactor="1.02" vaporized=""/>
    <tripinfo id="73" depart="216.00" departLane="E0_0" departPos="5.10" departSpeed="0.00" departDelay="129.00" arrival="317.00" arrivalLane="E3_0" arrivalPos="90.46" arrivalSpeed="28.72" duration="101.00" routeLength="1314.99" waitingTime="0.00" waitingCount="0" stopTime="0.00" timeLoss="15.95" rerouteNo="0" devices="tripinfo_73" vType="DEFAULT_VEHTYPE" speedFactor="0.97" vaporized=""/>
    <tripinfo id="74" depart="219.00" departLane="E0_0" departPos="5.10" departSpeed="0.00" departDelay="132.00" arrival="322.00" arrivalLane="E3_0" arrivalPos="90.46" arrivalSpeed="27.42" duration="103.00" routeLength="1314.99" waitingTime="0.00" waitingCount="0" stopTime="0.00" timeLoss="14.93" rerouteNo="0" devices="tripinfo_74" vType="DEFAULT_VEHTYPE" speedFactor="0.94" vaporized=""/>
    <tripinfo id="76" depart="225.00" departLane="E0_0" departPos="5.10" departSpeed="0.00" departDelay="135.00" arrival="326.00" arrivalLane="E3_0" arrivalPos="90.46" arrivalSpeed="27.79" duration="101.00" routeLength="1314.99" waitingTime="0.00" waitingCount="0" stopTime="0.00" timeLoss="14.68" rerouteNo="0" devices="tripinfo_76" vType="DEFAULT_VEHTYPE" speedFactor="0.96" vaporized=""/>
    <tripinfo id="77" depart="228.00" departLane="E0_0" departPos="5.10" departSpeed="0.00" departDelay="136.00" arrival="327.00" arrivalLane="E3_0" arrivalPos="90.46" arrivalSpeed="28.63" duration="99.00" routeLength="1314.99" waitingTime="0.00" waitingCount="0" stopTime="0.00" timeLoss="15.73" rerouteNo="0" devices="tripinfo_77" vType="DEFAULT_VEHTYPE" speedFactor="0.98" vaporized=""/>
    <tripinfo id="78" depart="231.00" departLane="E0_0" departPos="5.10" departSpeed="0.00" departDelay="138.00" arrival="329.00" arrivalLane="E3_0" arrivalPos="90.46" arrivalSpeed="30.22" duration="98.00" routeLength="1314.99" waitingTime="0.00" waitingCount="0" stopTime="0.00" timeLoss="18.02" rerouteNo="0" devices="tripinfo_78" vType="DEFAULT_VEHTYPE" speedFactor="1.03" vaporized=""/>
    <tripinfo id="79" depart="234.00" departLane="E0_0" departPos="5.10" departSpeed="0.00" departDelay="140.00" arrival="333.00" arrivalLane="E3_0" arrivalPos="90.46" arrivalSpeed="29.18" duration="99.00" routeLength="1314.99" waitingTime="0.00" waitingCount="0" stopTime="0.00" timeLoss="15.03" rerouteNo="0" devices="tripinfo_79" vType="DEFAULT_VEHTYPE" speedFactor="0.98" vaporized=""/>
    <tripinfo id="81" depart="240.00" departLane="E0_0" departPos="5.10" departSpeed="0.00" departDelay="144.00" arrival="334.00" arrivalLane="E3_0" arrivalPos="90.46" arrivalSpeed="30.36" duration="94.00" routeLength="1314.99" waitingTime="0.00" waitingCount="0" stopTime="0.00" timeLoss="18.59" rerouteNo="0" devices="tripinfo_81" vType="DEFAULT_VEHTYPE" speedFactor="1.09" vaporized=""/>
    <tripinfo id="82" depart="243.00" departLane="E0_0" departPos="5.10" departSpeed="0.00" departDelay="147.00" arrival="339.00" arrivalLane="E3_0" arrivalPos="90.46" arrivalSpeed="30.70" duration="96.00" routeLength="1314.99" waitingTime="0.00" waitingCount="0" stopTime="0.00" timeLoss="16.19" rerouteNo="0" devices="tripinfo_82" vType="DEFAULT_VEHTYPE" speedFactor="1.03" vaporized=""/>
    <tripinfo id="83" depart="246.00" departLane="E0_0" departPos="5.10" departSpeed="0.00" departDelay="149.00" arrival="343.00" arrivalLane="E3_0" arrivalPos="90.46" arrivalSpeed="29.66" duration="97.00" routeLength="1314.99" waitingTime="0.00" waitingCount="0" stopTime="0.00" timeLoss="14.98" rerouteNo="0" devices="tripinfo_83" vType="DEFAULT_VEHTYPE" speedFactor="1.00" vaporized=""/>
    <tripinfo id="85" depart="252.00" departLane="E0_0" departPos="5.10" departSpeed="0.00" departDelay="151.00" arrival="350.00" arrivalLane="E3_0" arrivalPos="90.46" arrivalSpeed="28.44" duration="98.00" routeLength="1314.99" waitingTime="0.00" waitingCount="0" stopTime="0.00" timeLoss="13.06" rerouteNo="0" devices="tripinfo_85" vType="DEFAULT_VEHTYPE" speedFactor="0.97" vaporized=""/>
    <tripinfo id="87" depart="258.00" departLane="E0_0" departPos="5.10" departSpeed="0.00" departDelay="156.00" arrival="355.00" arrivalLane="E3_0" arrivalPos="90.46" arrivalSpeed="28.68" duration="97.00" routeLength="1314.99" waitingTime="0.00" waitingCount="0" stopTime="0.00" timeLoss="13.31" rerouteNo="0" devices="tripinfo_87" vType="DEFAULT_VEHTYPE" speedFactor="0.98" vaporized=""/>
    <tripinfo id="88" depart="261.00" departLane="E0_0" departPos="5.10" departSpeed="0.00" departDelay="157.00" arrival="357.00" arrivalLane="E3_0" arrivalPos="90.46" arrivalSpeed="29.00" duration="96.00" routeLength="1314.99" waitingTime="0.00" waitingCount="0" stopTime="0.00" timeLoss="14.02" rerouteNo="0" devices="tripinfo_88" vType="DEFAULT_VEHTYPE" speedFactor="1.00" vaporized=""/>
    <tripinfo id="26" depart="75.00" departLane="E0_0" departPos="5.10" departSpeed="0.00" departDelay="41.00" arrival="367.00" arrivalLane="E3_0" arrivalPos="90.46" arrivalSpeed="24.57" duration="292.00" routeLength="1317.38" waitingTime="154.00" waitingCount="4" stopTime="0.00" timeLoss="187.60" rerouteNo="0" devices="tripinfo_26" vType="DEFAULT_VEHTYPE" speedFactor="0.83" vaporized=""/>
    <tripinfo id="91" depart="270.00" departLane="E0_0" departPos="5.10" departSpeed="0.00" departDelay="164.00" arrival="368.00" arrivalLane="E3_0" arrivalPos="90.46" arrivalSpeed="24.88" duration="98.00" routeLength="1314.99" waitingTime="0.00" waitingCount="0" stopTime="0.00" timeLoss="17.58" rerouteNo="0" devices="tripinfo_91" vType="DEFAULT_VEHTYPE" speedFactor="1.02" vaporized=""/>
    <tripinfo id="92" depart="273.00" departLane="E0_0" departPos="5.10" departSpeed="0.00" departDelay="164.00" arrival="370.00" arrivalLane="E3_0" arrivalPos="90.46" arrivalSpeed="27.93" duration="97.00" routeLength="1314.99" waitingTime="0.00" waitingCount="0" stopTime="0.00" timeLoss="16.00" rerouteNo="0" devices="tripinfo_92" vType="DEFAULT_VEHTYPE" speedFactor="1.02" vaporized=""/>
    <tripinfo id="27" depart="78.00" departLane="E0_0" departPos="5.10" departSpeed="0.00" departDelay="43.00" arrival="385.00" arrivalLane="E3_0" arrivalPos="90.46" arrivalSpeed="24.90" duration="307.00" routeLength="1317.38" waitingTime="166.00" waitingCount="5" stopTime="0.00" timeLoss="209.08" rerouteNo="0" devices="tripinfo_27" vType="DEFAULT_VEHTYPE" speedFactor="0.87" vaporized=""/>
    <tripinfo id="94" depart="279.00" departLane="E0_0" departPos="5.10" departSpeed="0.00" departDelay="165.00" arrival="392.00" arrivalLane="E3_0" arrivalPos="90.46" arrivalSpeed="23.77" duration="113.00" routeLength="1314.99" waitingTime="0.00" waitingCount="0" stopTime="0.00" timeLoss="14.05" rerouteNo="0" devices="tripinfo_94" vType="DEFAULT_VEHTYPE" speedFactor="0.83" vaporized=""/>
    <tripinfo id="95" depart="282.00" departLane="E0_0" departPos="5.10" departSpeed="0.00" departDelay="165.00" arrival="393.00" arrivalLane="E3_0" arrivalPos="90.46" arrivalSpeed="25.78" duration="111.00" routeLength="1314.99" waitingTime="0.00" waitingCount="0" stopTime="0.00" timeLoss="22.01" rerouteNo="0" devices="tripinfo_95" vType="DEFAULT_VEHTYPE" speedFactor="0.92" vaporized=""/>
    <tripinfo id="96" depart="285.00" departLane="E0_0" departPos="5.10" departSpeed="0.00" departDelay="168.00" arrival="395.00" arrivalLane="E3_0" arrivalPos="90.46" arrivalSpeed="28.51" duration="110.00" routeLength="1314.99" waitingTime="0.00" waitingCount="0" stopTime="0.00" timeLoss="34.44" rerouteNo="0" devices="tripinfo_96" vType="DEFAULT_VEHTYPE" speedFactor="1.09" vaporized=""/>
    <tripinfo id="100" depart="297.00" departLane="E0_0" departPos="5.10" departSpeed="0.00" departDelay="174.00" arrival="396.00" arrivalLane="E3_0" arrivalPos="90.46" arrivalSpeed="27.90" duration="99.00" routeLength="1314.99" waitingTime="0.00" waitingCount="0" stopTime="0.00" timeLoss="25.76" rerouteNo="0" devices="tripinfo_100" vType="DEFAULT_VEHTYPE" speedFactor="1.12" vaporized=""/>
    <tripinfo id="101" depart="300.00" departLane="E0_0" departPos="5.10" departSpeed="0.00" departDelay="177.00" arrival="397.00" arrivalLane="E3_0" arrivalPos="90.46" arrivalSpeed="27.11" duration="97.00" routeLength="1314.99" waitingTime="0.00" waitingCount="0" stopTime="0.00" timeLoss="22.29" rerouteNo="0" devices="tripinfo_101" vType="DEFAULT_VEHTYPE" speedFactor="1.10" vaporized=""/>
    <tripinfo id="103" depart="306.00" departLane="E0_0" departPos="5.10" departSpeed="0.00" departDelay="182.00" arrival="407.00" arrivalLane="E3_0" arrivalPos="90.46" arrivalSpeed="28.14" duration="101.00" routeLength="1314.99" waitingTime="0.00" waitingCount="0" stopTime="0.00" timeLoss="15.23" rerouteNo="0" devices="tripinfo_103" vType="DEFAULT_VEHTYPE" speedFactor="0.96" vaporized=""/>
    <tripinfo id="107" depart="318.00" departLane="E0_0" departPos="5.10" departSpeed="0.00" departDelay="185.00" arrival="410.00" arrivalLane="E3_0" arrivalPos="90.46" arrivalSpeed="32.06" duration="92.00" routeLength="1314.99" waitingTime="0.00" waitingCount="0" stopTime="0.00" timeLoss="14.91" rerouteNo="0" devices="tripinfo_107" vType="DEFAULT_VEHTYPE" speedFactor="1.07" vaporized=""/>