<?xml version="1.0" encoding="UTF-8"?>

<!-- generated on 2023-04-28 18:28:58 by Eclipse SUMO sumo Version 1.16.0
<configuration xmlns:xsi="http://www.w3.org/2001/XMLSchema-instance" xsi:noNamespaceSchemaLocation="http://sumo.dlr.de/xsd/sumoConfiguration.xsd">

    <input>
        <net-file value="C:\Users\Local_Man\Desktop\Stolen%20Music\school%20stuff%20for%20college\Semester%2015%20(UH%20Graduate%20School)\COSC%206364%20Nikolaos\SUMO_Project\COSC6364_Project\configurations\maps\Random_English.net.xml"/>
        <route-files value="./configurations/Rounds/Random_English.net.xml-test_R-4/Mesoscopic_DUE/028/Trips_File_028.rou.xml"/>
    </input>

    <output>
        <summary-output value="./configurations/Rounds/Random_English.net.xml-test_R-4/Mesoscopic_DUE/028/summary.xml"/>
        <tripinfo-output value="./configurations/Rounds/Random_English.net.xml-test_R-4/Mesoscopic_DUE/028/trips.trips.xml"/>
        <statistic-output value="./configurations/Rounds/Random_English.net.xml-test_R-4/Mesoscopic_DUE/028/stats_output.xml"/>
    </output>

    <time>
        <begin value="0"/>
    </time>

    <report>
        <log value="./configurations/Rounds/Random_English.net.xml-test_R-4/Mesoscopic_DUE/028/log.sumo.log"/>
        <no-step-log value="true"/>
    </report>

    <gui_only>
        <quit-on-end value="true"/>
    </gui_only>

</configuration>
-->

<tripinfos xmlns:xsi="http://www.w3.org/2001/XMLSchema-instance" xsi:noNamespaceSchemaLocation="http://sumo.dlr.de/xsd/tripinfo_file.xsd">
    <tripinfo id="49" depart="37.00" departLane="882_0" departPos="5.10" departSpeed="0.00" departDelay="0.00" arrival="63.00" arrivalLane="-1033_0" arrivalPos="91.86" arrivalSpeed="12.21" duration="26.00" routeLength="272.41" waitingTime="0.00" waitingCount="0" stopTime="0.00" timeLoss="3.54" rerouteNo="0" devices="tripinfo_49" vType="DEFAULT_VEHTYPE" speedFactor="0.90" vaporized=""/>
    <tripinfo id="34" depart="28.00" departLane="-365_0" departPos="5.10" departSpeed="0.00" departDelay="0.00" arrival="65.00" arrivalLane="365_2" arrivalPos="195.72" arrivalSpeed="13.63" duration="37.00" routeLength="391.01" waitingTime="0.00" waitingCount="0" stopTime="0.00" timeLoss="7.53" rerouteNo="0" devices="tripinfo_34" vType="DEFAULT_VEHTYPE" speedFactor="1.01" vaporized=""/>
    <tripinfo id="5" depart="3.00" departLane="4467_0" departPos="5.10" departSpeed="0.00" departDelay="0.00" arrival="84.00" arrivalLane="2895_0" arrivalPos="155.50" arrivalSpeed="14.08" duration="81.00" routeLength="920.37" waitingTime="0.00" waitingCount="0" stopTime="0.00" timeLoss="15.44" rerouteNo="0" devices="tripinfo_5" vType="DEFAULT_VEHTYPE" speedFactor="1.08" vaporized=""/>
    <tripinfo id="29" depart="24.00" departLane="119_0" departPos="5.10" departSpeed="0.00" departDelay="0.00" arrival="85.00" arrivalLane="64_0" arrivalPos="128.88" arrivalSpeed="12.84" duration="61.00" routeLength="639.10" waitingTime="0.00" waitingCount="0" stopTime="0.00" timeLoss="9.96" rerouteNo="0" devices="tripinfo_29" vType="DEFAULT_VEHTYPE" speedFactor="0.95" vaporized=""/>
    <tripinfo id="48" depart="36.00" departLane="-2285_0" departPos="5.10" departSpeed="0.00" departDelay="0.00" arrival="85.00" arrivalLane="642_1" arrivalPos="215.54" arrivalSpeed="13.56" duration="49.00" routeLength="541.58" waitingTime="0.00" waitingCount="0" stopTime="0.00" timeLoss="7.86" rerouteNo="0" devices="tripinfo_48" vType="DEFAULT_VEHTYPE" speedFactor="1.00" vaporized=""/>
    <tripinfo id="21" depart="20.00" departLane="1029_0" departPos="5.10" departSpeed="0.00" departDelay="0.00" arrival="95.00" arrivalLane="11_1" arrivalPos="146.86" arrivalSpeed="15.15" duration="75.00" routeLength="750.55" waitingTime="2.00" waitingCount="1" stopTime="0.00" timeLoss="26.17" rerouteNo="0" devices="tripinfo_21" vType="DEFAULT_VEHTYPE" speedFactor="1.16" vaporized=""/>
    <tripinfo id="80" depart="65.00" departLane="125_0" departPos="5.10" departSpeed="0.00" departDelay="1.00" arrival="102.00" arrivalLane="-344_2" arrivalPos="107.02" arrivalSpeed="13.13" duration="37.00" routeLength="396.50" waitingTime="0.00" waitingCount="0" stopTime="0.00" timeLoss="7.80" rerouteNo="0" devices="tripinfo_80" vType="DEFAULT_VEHTYPE" speedFactor="1.01" vaporized=""/>
    <tripinfo id="37" depart="30.00" departLane="330_0" departPos="5.10" departSpeed="0.00" departDelay="0.00" arrival="106.00" arrivalLane="-1429_0" arrivalPos="100.21" arrivalSpeed="13.08" duration="76.00" routeLength="942.99" waitingTime="0.00" waitingCount="0" stopTime="0.00" timeLoss="8.01" rerouteNo="0" devices="tripinfo_37" vType="DEFAULT_VEHTYPE" speedFactor="1.02" vaporized=""/>
    <tripinfo id="111" depart="88.00" departLane="-3119_0" departPos="5.10" departSpeed="0.00" departDelay="0.00" arrival="110.00" arrivalLane="3093_0" arrivalPos="91.76" arrivalSpeed="12.50" duration="22.00" routeLength="211.13" waitingTime="0.00" waitingCount="0" stopTime="0.00" timeLoss="5.62" rerouteNo="0" devices="tripinfo_111" vType="DEFAULT_VEHTYPE" speedFactor="0.96" vaporized=""/>
    <tripinfo id="44" depart="34.00" departLane="2766_0" departPos="5.10" departSpeed="0.00" departDelay="0.00" arrival="112.00" arrivalLane="1493_1" arrivalPos="152.18" arrivalSpeed="14.39" duration="78.00" routeLength="789.55" waitingTime="5.00" waitingCount="1" stopTime="0.00" timeLoss="22.83" rerouteNo="0" devices="tripinfo_44" vType="DEFAULT_VEHTYPE" speedFactor="1.09" vaporized=""/>
    <tripinfo id="11" depart="8.00" departLane="1359_0" departPos="5.10" departSpeed="0.00" departDelay="0.00" arrival="120.00" arrivalLane="1798_1" arrivalPos="161.79" arrivalSpeed="10.61" duration="112.00" routeLength="1056.98" waitingTime="2.00" waitingCount="1" stopTime="0.00" timeLoss="19.32" rerouteNo="0" devices="tripinfo_11" vType="DEFAULT_VEHTYPE" speedFactor="0.86" vaporized=""/>
    <tripinfo id="47" depart="35.00" departLane="1930_0" departPos="5.10" departSpeed="0.00" departDelay="0.00" arrival="124.00" arrivalLane="-2210_0" arrivalPos="221.80" arrivalSpeed="14.99" duration="89.00" routeLength="1146.00" waitingTime="0.00" waitingCount="0" stopTime="0.00" timeLoss="11.48" rerouteNo="0" devices="tripinfo_47" vType="DEFAULT_VEHTYPE" speedFactor="1.09" vaporized=""/>
    <tripinfo id="23" depart="21.00" departLane="-125_0" departPos="5.10" departSpeed="0.00" departDelay="0.00" arrival="126.00" arrivalLane="608_0" arrivalPos="156.63" arrivalSpeed="13.32" duration="105.00" routeLength="1197.87" waitingTime="0.00" waitingCount="0" stopTime="0.00" timeLoss="17.06" rerouteNo="0" devices="tripinfo_23" vType="DEFAULT_VEHTYPE" speedFactor="1.01" vaporized=""/>
    <tripinfo id="28" depart="24.00" departLane="2756_0" departPos="5.10" departSpeed="0.00" departDelay="0.00" arrival="134.00" arrivalLane="2206_2" arrivalPos="222.28" arrivalSpeed="12.53" duration="110.00" routeLength="1212.28" waitingTime="0.00" waitingCount="0" stopTime="0.00" timeLoss="13.11" rerouteNo="0" devices="tripinfo_28" vType="DEFAULT_VEHTYPE" speedFactor="0.92" vaporized=""/>
    <tripinfo id="35" depart="29.00" departLane="1493_0" departPos="5.10" departSpeed="0.00" departDelay="0.00" arrival="134.00" arrivalLane="-19_1" arrivalPos="168.49" arrivalSpeed="15.88" duration="105.00" routeLength="1400.23" waitingTime="0.00" waitingCount="0" stopTime="0.00" timeLoss="17.30" rerouteNo="0" devices="tripinfo_35" vType="DEFAULT_VEHTYPE" speedFactor="1.17" vaporized=""/>
    <tripinfo id="7" depart="5.00" departLane="-504_0" departPos="5.10" departSpeed="0.00" departDelay="0.00" arrival="135.00" arrivalLane="1029_0" arrivalPos="141.57" arrivalSpeed="11.43" duration="130.00" routeLength="1325.68" waitingTime="0.00" waitingCount="0" stopTime="0.00" timeLoss="13.13" rerouteNo="0" devices="tripinfo_7" vType="DEFAULT_VEHTYPE" speedFactor="0.83" vaporized=""/>
    <tripinfo id="61" depart="46.00" departLane="1373_0" departPos="5.10" departSpeed="0.00" departDelay="0.00" arrival="135.00" arrivalLane="1483_0" arrivalPos="103.22" arrivalSpeed="12.79" duration="89.00" routeLength="994.94" waitingTime="0.00" waitingCount="0" stopTime="0.00" timeLoss="13.70" rerouteNo="0" devices="tripinfo_61" vType="DEFAULT_VEHTYPE" speedFactor="0.97" vaporized=""/>
    <tripinfo id="27" depart="23.00" departLane="-330_0" departPos="5.10" departSpeed="0.00" departDelay="0.00" arrival="136.00" arrivalLane="-123_0" arrivalPos="126.98" arrivalSpeed="10.85" duration="113.00" routeLength="1161.47" waitingTime="0.00" waitingCount="0" stopTime="0.00" timeLoss="15.04" rerouteNo="0" devices="tripinfo_27" vType="DEFAULT_VEHTYPE" speedFactor="0.87" vaporized=""/>
    <tripinfo id="19" depart="18.00" departLane="-119_0" departPos="5.10" departSpeed="0.00" departDelay="0.00" arrival="138.00" arrivalLane="-2300_1" arrivalPos="232.80" arrivalSpeed="12.18" duration="120.00" routeLength="1332.95" waitingTime="0.00" waitingCount="0" stopTime="0.00" timeLoss="15.63" rerouteNo="0" devices="tripinfo_19" vType="DEFAULT_VEHTYPE" speedFactor="0.94" vaporized=""/>
    <tripinfo id="88" depart="68.00" departLane="379_0" departPos="5.10" departSpeed="0.00" departDelay="0.00" arrival="144.00" arrivalLane="-338_0" arrivalPos="103.15" arrivalSpeed="13.20" duration="76.00" routeLength="863.95" waitingTime="0.00" waitingCount="0" stopTime="0.00" timeLoss="10.80" rerouteNo="0" devices="tripinfo_88" vType="DEFAULT_VEHTYPE" speedFactor="1.00" vaporized=""/>
    <tripinfo id="68" depart="58.00" departLane="-3739_0" departPos="5.10" departSpeed="0.00" departDelay="0.00" arrival="145.00" arrivalLane="-614_0" arrivalPos="100.46" arrivalSpeed="12.05" duration="87.00" routeLength="898.26" waitingTime="0.00" waitingCount="0" stopTime="0.00" timeLoss="12.49" rerouteNo="0" devices="tripinfo_68" vType="DEFAULT_VEHTYPE" speedFactor="0.91" vaporized=""/>
    <tripinfo id="76" depart="63.00" departLane="-2120_0" departPos="5.10" departSpeed="0.00" departDelay="0.00" arrival="146.00" arrivalLane="-1373_0" arrivalPos="202.09" arrivalSpeed="12.19" duration="83.00" routeLength="901.19" waitingTime="2.00" waitingCount="1" stopTime="0.00" timeLoss="12.97" rerouteNo="0" devices="tripinfo_76" vType="DEFAULT_VEHTYPE" speedFactor="0.96" vaporized=""/>
    <tripinfo id="114" depart="94.00" departLane="1396_0" departPos="5.10" departSpeed="0.00" departDelay="0.00" arrival="154.00" arrivalLane="-3739_0" arrivalPos="188.66" arrivalSpeed="14.93" duration="60.00" routeLength="694.77" waitingTime="0.00" waitingCount="0" stopTime="0.00" timeLoss="12.38" rerouteNo="0" devices="tripinfo_114" vType="DEFAULT_VEHTYPE" speedFactor="1.10" vaporized=""/>
    <tripinfo id="36" depart="29.00" departLane="-11_0" departPos="5.10" departSpeed="0.00" departDelay="0.00" arrival="156.00" arrivalLane="-639_2" arrivalPos="168.47" arrivalSpeed="12.89" duration="127.00" routeLength="1207.71" waitingTime="4.00" waitingCount="1" stopTime="0.00" timeLoss="35.82" rerouteNo="0" devices="tripinfo_36" vType="DEFAULT_VEHTYPE" speedFactor="0.99" vaporized=""/>
    <tripinfo id="16" depart="16.00" departLane="492_0" departPos="5.10" departSpeed="0.00" departDelay="0.00" arrival="160.00" arrivalLane="-730_1" arrivalPos="136.29" arrivalSpeed="13.43" duration="144.00" routeLength="1628.44" waitingTime="0.00" waitingCount="0" stopTime="0.00" timeLoss="23.57" rerouteNo="0" devices="tripinfo_16" vType="DEFAULT_VEHTYPE" speedFactor="0.99" vaporized=""/>
    <tripinfo id="2" depart="0.00" departLane="-3252_0" departPos="5.10" departSpeed="0.00" departDelay="0.00" arrival="163.00" arrivalLane="-1373_0" arrivalPos="202.09" arrivalSpeed="14.07" duration="163.00" routeLength="1918.66" waitingTime="0.00" waitingCount="0" stopTime="0.00" timeLoss="28.03" rerouteNo="0" devices="tripinfo_2" vType="DEFAULT_VEHTYPE" speedFactor="1.06" vaporized=""/>
    <tripinfo id="140" depart="126.00" departLane="-4256_0" departPos="5.10" departSpeed="0.00" departDelay="0.00" arrival="164.00" arrivalLane="4255_1" arrivalPos="207.02" arrivalSpeed="13.21" duration="38.00" routeLength="427.38" waitingTime="0.00" waitingCount="0" stopTime="0.00" timeLoss="6.17" rerouteNo="0" devices="tripinfo_140" vType="DEFAULT_VEHTYPE" speedFactor="1.00" vaporized=""/>
    <tripinfo id="38" depart="31.00" departLane="123_0" departPos="5.10" departSpeed="0.00" departDelay="0.00" arrival="165.00" arrivalLane="650_0" arrivalPos="184.52" arrivalSpeed="12.67" duration="134.00" routeLength="1375.40" waitingTime="5.00" waitingCount="2" stopTime="0.00" timeLoss="30.14" rerouteNo="0" devices="tripinfo_38" vType="DEFAULT_VEHTYPE" speedFactor="0.97" vaporized=""/>
    <tripinfo id="9" depart="7.00" departLane="612_0" departPos="5.10" departSpeed="0.00" departDelay="0.00" arrival="167.00" arrivalLane="642_0" arrivalPos="215.54" arrivalSpeed="11.73" duration="160.00" routeLength="1749.51" waitingTime="0.00" waitingCount="0" stopTime="0.00" timeLoss="16.57" rerouteNo="0" devices="tripinfo_9" vType="DEFAULT_VEHTYPE" speedFactor="0.89" vaporized=""/>
    <tripinfo id="63" depart="50.00" departLane="2168_0" departPos="5.10" departSpeed="0.00" departDelay="0.00" arrival="167.00" arrivalLane="3093_1" arrivalPos="91.76" arrivalSpeed="15.43" duration="117.00" routeLength="1590.30" waitingTime="0.00" waitingCount="0" stopTime="0.00" timeLoss="12.69" rerouteNo="0" devices="tripinfo_63" vType="DEFAULT_VEHTYPE" speedFactor="1.12" vaporized=""/>
    <tripinfo id="82" depart="64.00" departLane="-1930_0" departPos="5.10" departSpeed="0.00" departDelay="0.00" arrival="168.00" arrivalLane="119_1" arrivalPos="102.25" arrivalSpeed="14.08" duration="104.00" routeLength="1234.47" waitingTime="0.00" waitingCount="0" stopTime="0.00" timeLoss="16.80" rerouteNo="0" devices="tripinfo_82" vType="DEFAULT_VEHTYPE" speedFactor="1.03" vaporized=""/>
    <tripinfo id="120" depart="99.00" departLane="2183_0" departPos="5.10" departSpeed="0.00" departDelay="0.00" arrival="169.00" arrivalLane="-3122_0" arrivalPos="196.86" arrivalSpeed="13.49" duration="70.00" routeLength="778.06" waitingTime="0.00" waitingCount="0" stopTime="0.00" timeLoss="11.28" rerouteNo="0" devices="tripinfo_120" vType="DEFAULT_VEHTYPE" speedFactor="0.99" vaporized=""/>
    <tripinfo id="46" depart="35.00" departLane="-330_0" departPos="5.10" departSpeed="0.00" departDelay="0.00" arrival="170.00" arrivalLane="3799_0" arrivalPos="136.73" arrivalSpeed="13.31" duration="135.00" routeLength="1673.43" waitingTime="0.00" waitingCount="0" stopTime="0.00" timeLoss="17.12" rerouteNo="0" devices="tripinfo_46" vType="DEFAULT_VEHTYPE" speedFactor="1.04" vaporized=""/>
    <tripinfo id="56" depart="41.00" departLane="-15_0" departPos="5.10" departSpeed="0.00" departDelay="0.00" arrival="170.00" arrivalLane="-3162_0" arrivalPos="207.15" arrivalSpeed="12.88" duration="129.00" routeLength="1401.48" waitingTime="1.00" waitingCount="1" stopTime="0.00" timeLoss="25.17" rerouteNo="0" devices="tripinfo_56" vType="DEFAULT_VEHTYPE" speedFactor="1.00" vaporized=""/>
    <tripinfo id="53" depart="40.00" departLane="336_0" departPos="5.10" departSpeed="0.00" departDelay="0.00" arrival="176.00" arrivalLane="-3252_1" arrivalPos="156.98" arrivalSpeed="15.84" duration="136.00" routeLength="1728.05" waitingTime="0.00" waitingCount="0" stopTime="0.00" timeLoss="25.66" rerouteNo="0" devices="tripinfo_53" vType="DEFAULT_VEHTYPE" speedFactor="1.17" vaporized=""/>
    <tripinfo id="43" depart="33.00" departLane="674_0" departPos="5.10" departSpeed="0.00" departDelay="0.00" arrival="178.00" arrivalLane="-1526_0" arrivalPos="155.67" arrivalSpeed="12.52" duration="145.00" routeLength="1600.96" waitingTime="0.00" waitingCount="0" stopTime="0.00" timeLoss="23.15" rerouteNo="0" devices="tripinfo_43" vType="DEFAULT_VEHTYPE" speedFactor="0.96" vaporized=""/>
    <tripinfo id="123" depart="104.00" departLane="-17_0" departPos="5.10" departSpeed="0.00" departDelay="0.00" arrival="178.00" arrivalLane="-492_0" arrivalPos="209.16" arrivalSpeed="15.17" duration="74.00" routeLength="930.58" waitingTime="0.00" waitingCount="0" stopTime="0.00" timeLoss="12.22" rerouteNo="0" devices="tripinfo_123" vType="DEFAULT_VEHTYPE" speedFactor="1.10" vaporized=""/>
    <tripinfo id="72" depart="61.00" departLane="-2188_0" departPos="5.10" departSpeed="0.00" departDelay="0.00" arrival="179.00" arrivalLane="-1533_2" arrivalPos="143.02" arrivalSpeed="13.93" duration="118.00" routeLength="1199.08" waitingTime="12.00" waitingCount="1" stopTime="0.00" timeLoss="31.52" rerouteNo="0" devices="tripinfo_72" vType="DEFAULT_VEHTYPE" speedFactor="1.02" vaporized=""/>
    <tripinfo id="24" depart="22.00" departLane="2979_0" departPos="5.10" departSpeed="0.00" departDelay="0.00" arrival="180.00" arrivalLane="-11_0" arrivalPos="146.86" arrivalSpeed="12.56" duration="158.00" routeLength="1782.41" waitingTime="0.00" waitingCount="0" stopTime="0.00" timeLoss="22.90" rerouteNo="0" devices="tripinfo_24" vType="DEFAULT_VEHTYPE" speedFactor="0.97" vaporized=""/>
    <tripinfo id="104" depart="80.00" departLane="-1523_0" departPos="5.10" departSpeed="0.00" departDelay="0.00" arrival="180.00" arrivalLane="-623_0" arrivalPos="149.71" arrivalSpeed="13.37" duration="100.00" routeLength="1136.71" waitingTime="0.00" waitingCount="0" stopTime="0.00" timeLoss="12.87" rerouteNo="0" devices="tripinfo_104" vType="DEFAULT_VEHTYPE" speedFactor="0.97" vaporized=""/>
    <tripinfo id="60" depart="45.00" departLane="1343_0" departPos="5.10" departSpeed="0.00" departDelay="0.00" arrival="181.00" arrivalLane="-2724_0" arrivalPos="216.58" arrivalSpeed="13.06" duration="136.00" routeLength="1601.72" waitingTime="0.00" waitingCount="0" stopTime="0.00" timeLoss="20.24" rerouteNo="0" devices="tripinfo_60" vType="DEFAULT_VEHTYPE" speedFactor="1.02" vaporized=""/>
    <tripinfo id="14" depart="13.00" departLane="-684_0" departPos="5.10" departSpeed="0.00" departDelay="0.00" arrival="183.00" arrivalLane="3835_0" arrivalPos="221.91" arrivalSpeed="13.67" duration="170.00" routeLength="2041.85" waitingTime="0.00" waitingCount="0" stopTime="0.00" timeLoss="26.43" rerouteNo="0" devices="tripinfo_14" vType="DEFAULT_VEHTYPE" speedFactor="1.05" vaporized=""/>
    <tripinfo id="79" depart="63.00" departLane="-1093_0" departPos="5.10" departSpeed="0.00" departDelay="0.00" arrival="189.00" arrivalLane="2724_1" arrivalPos="216.58" arrivalSpeed="12.71" duration="126.00" routeLength="1388.14" waitingTime="0.00" waitingCount="0" stopTime="0.00" timeLoss="19.92" rerouteNo="0" devices="tripinfo_79" vType="DEFAULT_VEHTYPE" speedFactor="0.98" vaporized=""/>
    <tripinfo id="110" depart="87.00" departLane="9_0" departPos="5.10" departSpeed="0.00" departDelay="0.00" arrival="189.00" arrivalLane="-577_1" arrivalPos="184.87" arrivalSpeed="14.68" duration="102.00" routeLength="1076.32" waitingTime="3.00" waitingCount="2" stopTime="0.00" timeLoss="28.07" rerouteNo="0" devices="tripinfo_110" vType="DEFAULT_VEHTYPE" speedFactor="1.06" vaporized=""/>
    <tripinfo id="107" depart="83.00" departLane="-4469_0" departPos="5.10" departSpeed="0.00" departDelay="0.00" arrival="190.00" arrivalLane="4539_1" arrivalPos="115.78" arrivalSpeed="13.64" duration="107.00" routeLength="1349.62" waitingTime="0.00" waitingCount="0" stopTime="0.00" timeLoss="12.97" rerouteNo="0" devices="tripinfo_107" vType="DEFAULT_VEHTYPE" speedFactor="1.07" vaporized=""/>
    <tripinfo id="103" depart="80.00" departLane="-119_0" departPos="5.10" departSpeed="0.00" departDelay="0.00" arrival="192.00" arrivalLane="1775_1" arrivalPos="203.15" arrivalSpeed="12.17" duration="112.00" routeLength="1276.60" waitingTime="0.00" waitingCount="0" stopTime="0.00" timeLoss="14.16" rerouteNo="0" devices="tripinfo_103" vType="DEFAULT_VEHTYPE" speedFactor="0.96" vaporized=""/>
    <tripinfo id="13" depart="12.00" departLane="-504_0" departPos="5.10" departSpeed="0.00" departDelay="0.00" arrival="193.00" arrivalLane="3740_0" arrivalPos="200.06" arrivalSpeed="12.99" duration="181.00" routeLength="2262.28" waitingTime="0.00" waitingCount="0" stopTime="0.00" timeLoss="18.86" rerouteNo="0" devices="tripinfo_13" vType="DEFAULT_VEHTYPE" speedFactor="1.03" vaporized=""/>
    <tripinfo id="87" depart="67.00" departLane="2477_0" departPos="5.10" departSpeed="0.00" departDelay="0.00" arrival="194.00" arrivalLane="1429_1" arrivalPos="100.21" arrivalSpeed="13.55" duration="127.00" routeLength="1377.66" waitingTime="0.00" waitingCount="0" stopTime="0.00" timeLoss="22.01" rerouteNo="0" devices="tripinfo_87" vType="DEFAULT_VEHTYPE" speedFactor="0.98" vaporized=""/>
    <tripinfo id="54" depart="40.00" departLane="1359_0" departPos="5.10" departSpeed="0.00" departDelay="0.00" arrival="199.00" arrivalLane="2714_0" arrivalPos="210.48" arrivalSpeed="13.03" duration="159.00" routeLength="1733.27" waitingTime="13.00" waitingCount="1" stopTime="0.00" timeLoss="34.64" rerouteNo="0" devices="tripinfo_54" vType="DEFAULT_VEHTYPE" speedFactor="1.02" vaporized=""/>
    <tripinfo id="116" depart="95.00" departLane="210_0" departPos="5.10" departSpeed="0.00" departDelay="0.00" arrival="199.00" arrivalLane="1404_0" arrivalPos="121.76" arrivalSpeed="14.96" duration="104.00" routeLength="1347.05" waitingTime="0.00" waitingCount="0" stopTime="0.00" timeLoss="12.42" rerouteNo="0" devices="tripinfo_116" vType="DEFAULT_VEHTYPE" speedFactor="1.10" vaporized=""/>
    <tripinfo id="33" depart="27.00" departLane="-2112_0" departPos="5.10" departSpeed="0.00" departDelay="0.00" arrival="200.00" arrivalLane="210_1" arrivalPos="104.02" arrivalSpeed="15.53" duration="173.00" routeLength="2319.80" waitingTime="0.00" waitingCount="0" stopTime="0.00" timeLoss="26.94" rerouteNo="0" devices="tripinfo_33" vType="DEFAULT_VEHTYPE" speedFactor="1.15" vaporized=""/>
    <tripinfo id="97" depart="74.00" departLane="1944_0" departPos="5.10" departSpeed="0.00" departDelay="0.00" arrival="200.00" arrivalLane="-1535_2" arrivalPos="99.88" arrivalSpeed="14.63" duration="126.00" routeLength="1055.59" waitingTime="19.00" waitingCount="3" stopTime="0.00" timeLoss="52.72" rerouteNo="0" devices="tripinfo_97" vType="DEFAULT_VEHTYPE" speedFactor="1.06" vaporized=""/>
    <tripinfo id="8" depart="6.00" departLane="138_0" departPos="5.10" departSpeed="0.00" departDelay="0.00" arrival="201.00" arrivalLane="-2607_0" arrivalPos="124.36" arrivalSpeed="14.11" duration="195.00" routeLength="2128.78" waitingTime="3.00" waitingCount="1" stopTime="0.00" timeLoss="46.28" rerouteNo="0" devices="tripinfo_8" vType="DEFAULT_VEHTYPE" speedFactor="1.05" vaporized=""/>
    <tripinfo id="93" depart="71.00" departLane="2766_0" departPos="5.10" departSpeed="0.00" departDelay="0.00" arrival="202.00" arrivalLane="1431_0" arrivalPos="116.98" arrivalSpeed="12.14" duration="131.00" routeLength="1409.68" waitingTime="0.00" waitingCount="0" stopTime="0.00" timeLoss="14.56" rerouteNo="0" devices="tripinfo_93" vType="DEFAULT_VEHTYPE" speedFactor="0.89" vaporized=""/>
    <tripinfo id="39" depart="31.00" departLane="-608_0" departPos="5.10" departSpeed="0.00" departDelay="0.00" arrival="203.00" arrivalLane="-1429_0" arrivalPos="100.21" arrivalSpeed="15.26" duration="172.00" routeLength="2437.62" waitingTime="0.00" waitingCount="0" stopTime="0.00" timeLoss="21.49" rerouteNo="0" devices="tripinfo_39" vType="DEFAULT_VEHTYPE" speedFactor="1.18" vaporized=""/>
    <tripinfo id="42" depart="33.00" departLane="-492_0" departPos="5.10" departSpeed="0.00" departDelay="0.00" arrival="205.00" arrivalLane="-3162_0" arrivalPos="207.15" arrivalSpeed="13.85" duration="172.00" routeLength="2067.02" waitingTime="0.00" waitingCount="0" stopTime="0.00" timeLoss="24.16" rerouteNo="0" devices="tripinfo_42" vType="DEFAULT_VEHTYPE" speedFactor="1.03" vaporized=""/>
    <tripinfo id="147" depart="134.00" departLane="-1464_0" departPos="5.10" departSpeed="0.00" departDelay="0.00" arrival="205.00" arrivalLane="-379_0" arrivalPos="141.20" arrivalSpeed="15.26" duration="71.00" routeLength="882.09" waitingTime="0.00" waitingCount="0" stopTime="0.00" timeLoss="13.17" rerouteNo="0" devices="tripinfo_147" vType="DEFAULT_VEHTYPE" speedFactor="1.14" vaporized=""/>
    <tripinfo id="138" depart="121.00" departLane="-1391_0" departPos="5.10" departSpeed="0.00" departDelay="0.00" arrival="213.00" arrivalLane="492_2" arrivalPos="209.16" arrivalSpeed="14.66" duration="92.00" routeLength="1139.90" waitingTime="0.00" waitingCount="0" stopTime="0.00" timeLoss="17.38" rerouteNo="0" devices="tripinfo_138" vType="DEFAULT_VEHTYPE" speedFactor="1.12" vaporized=""/>
    <tripinfo id="167" depart="161.00" departLane="-1891_0" departPos="5.10" departSpeed="0.00" departDelay="0.00" arrival="213.00" arrivalLane="1526_0" arrivalPos="155.67" arrivalSpeed="12.48" duration="52.00" routeLength="517.93" waitingTime="0.00" waitingCount="0" stopTime="0.00" timeLoss="9.09" rerouteNo="0" devices="tripinfo_167" vType="DEFAULT_VEHTYPE" speedFactor="0.91" vaporized=""/>
    <tripinfo id="67" depart="55.00" departLane="116_0" departPos="5.10" departSpeed="0.00" departDelay="0.00" arrival="214.00" arrivalLane="1883_0" arrivalPos="79.10" arrivalSpeed="11.03" duration="159.00" routeLength="1552.68" waitingTime="5.00" waitingCount="1" stopTime="0.00" timeLoss="30.28" rerouteNo="0" devices="tripinfo_67" vType="DEFAULT_VEHTYPE" speedFactor="0.88" vaporized=""/>
    <tripinfo id="58" depart="43.00" departLane="-2714_0" departPos="5.10" departSpeed="0.00" departDelay="0.00" arrival="216.00" arrivalLane="-1494_1" arrivalPos="199.02" arrivalSpeed="12.02" duration="173.00" routeLength="1835.22" waitingTime="0.00" waitingCount="0" stopTime="0.00" timeLoss="22.70" rerouteNo="0" devices="tripinfo_58" vType="DEFAULT_VEHTYPE" speedFactor="0.90" vaporized=""/>
    <tripinfo id="62" depart="49.00" departLane="732_0" departPos="5.10" departSpeed="0.00" departDelay="0.00" arrival="216.00" arrivalLane="-608_2" arrivalPos="156.63" arrivalSpeed="14.61" duration="167.00" routeLength="1971.69" waitingTime="0.00" waitingCount="0" stopTime="0.00" timeLoss="32.46" rerouteNo="0" devices="tripinfo_62" vType="DEFAULT_VEHTYPE" speedFactor="1.08" vaporized=""/>
    <tripinfo id="151" depart="145.00" departLane="-2893_0" departPos="5.10" departSpeed="0.00" departDelay="0.00" arrival="216.00" arrivalLane="1396_0" arrivalPos="105.18" arrivalSpeed="13.51" duration="71.00" routeLength="790.15" waitingTime="0.00" waitingCount="0" stopTime="0.00" timeLoss="13.95" rerouteNo="0" devices="tripinfo_151" vType="DEFAULT_VEHTYPE" speedFactor="1.04" vaporized=""/>
    <tripinfo id="126" depart="109.00" departLane="642_0" departPos="5.10" departSpeed="0.00" departDelay="0.00" arrival="220.00" arrivalLane="-1201_0" arrivalPos="159.17" arrivalSpeed="14.53" duration="111.00" routeLength="1220.22" waitingTime="2.00" waitingCount="1" stopTime="0.00" timeLoss="24.26" rerouteNo="0" devices="tripinfo_126" vType="DEFAULT_VEHTYPE" speedFactor="1.06" vaporized=""/>
    <tripinfo id="152" depart="149.00" departLane="-1373_0" departPos="5.10" departSpeed="0.00" departDelay="3.00" arrival="220.00" arrivalLane="880_0" arrivalPos="200.29" arrivalSpeed="12.76" duration="71.00" routeLength="765.50" waitingTime="0.00" waitingCount="0" stopTime="0.00" timeLoss="11.32" rerouteNo="0" devices="tripinfo_152" vType="DEFAULT_VEHTYPE" speedFactor="0.96" vaporized=""/>
    <tripinfo id="81" depart="64.00" departLane="-1501_0" departPos="5.10" departSpeed="0.00" departDelay="0.00" arrival="223.00" arrivalLane="2289_0" arrivalPos="166.55" arrivalSpeed="15.01" duration="159.00" routeLength="2051.63" waitingTime="0.00" waitingCount="0" stopTime="0.00" timeLoss="21.37" rerouteNo="0" devices="tripinfo_81" vType="DEFAULT_VEHTYPE" speedFactor="1.09" vaporized=""/>
    <tripinfo id="92" depart="71.00" departLane="-333_0" departPos="5.10" departSpeed="0.00" departDelay="0.00" arrival="224.00" arrivalLane="3740_0" arrivalPos="200.06" arrivalSpeed="13.94" duration="153.00" routeLength="1833.73" waitingTime="0.00" waitingCount="0" stopTime="0.00" timeLoss="19.87" rerouteNo="0" devices="tripinfo_92" vType="DEFAULT_VEHTYPE" speedFactor="1.02" vaporized=""/>
    <tripinfo id="55" depart="40.00" departLane="2486_0" departPos="5.10" departSpeed="0.00" departDelay="0.00" arrival="226.00" arrivalLane="2502_0" arrivalPos="216.28" arrivalSpeed="14.40" duration="186.00" routeLength="2298.70" waitingTime="3.00" waitingCount="1" stopTime="0.00" timeLoss="32.94" rerouteNo="0" devices="tripinfo_55" vType="DEFAULT_VEHTYPE" speedFactor="1.10" vaporized=""/>
    <tripinfo id="18" depart="17.00" departLane="1501_0" departPos="5.10" departSpeed="0.00" departDelay="0.00" arrival="227.00" arrivalLane="-125_1" arrivalPos="161.85" arrivalSpeed="11.74" duration="210.00" routeLength="2056.22" waitingTime="16.00" waitingCount="1" stopTime="0.00" timeLoss="38.73" rerouteNo="0" devices="tripinfo_18" vType="DEFAULT_VEHTYPE" speedFactor="0.88" vaporized=""/>
    <tripinfo id="31" depart="26.00" departLane="-1532_0" departPos="5.10" departSpeed="0.00" departDelay="0.00" arrival="227.00" arrivalLane="-25_2" arrivalPos="189.97" arrivalSpeed="12.65" duration="201.00" routeLength="2016.85" waitingTime="11.00" waitingCount="1" stopTime="0.00" timeLoss="42.86" rerouteNo="0" devices="tripinfo_31" vType="DEFAULT_VEHTYPE" speedFactor="0.93" vaporized=""/>
    <tripinfo id="50" depart="37.00" departLane="4539_0" departPos="5.10" departSpeed="0.00" departDelay="0.00" arrival="228.00" arrivalLane="-117_1" arrivalPos="94.09" arrivalSpeed="11.32" duration="191.00" routeLength="2049.93" waitingTime="0.00" waitingCount="0" stopTime="0.00" timeLoss="20.25" rerouteNo="0" devices="tripinfo_50" vType="DEFAULT_VEHTYPE" speedFactor="0.88" vaporized=""/>
    <tripinfo id="74" depart="61.00" departLane="-15_0" departPos="5.10" departSpeed="0.00" departDelay="0.00" arrival="232.00" arrivalLane="2194_0" arrivalPos="151.73" arrivalSpeed="12.03" duration="171.00" routeLength="1949.39" waitingTime="0.00" waitingCount="0" stopTime="0.00" timeLoss="18.27" rerouteNo="0" devices="tripinfo_74" vType="DEFAULT_VEHTYPE" speedFactor="0.94" vaporized=""/>