<?xml version="1.0" encoding="UTF-8"?>

<!-- generated on 2023-04-28 20:10:44 by Eclipse SUMO sumo Version 1.16.0
<configuration xmlns:xsi="http://www.w3.org/2001/XMLSchema-instance" xsi:noNamespaceSchemaLocation="http://sumo.dlr.de/xsd/sumoConfiguration.xsd">

    <input>
        <net-file value="C:\Users\Local_Man\Desktop\Stolen%20Music\school%20stuff%20for%20college\Semester%2015%20(UH%20Graduate%20School)\COSC%206364%20Nikolaos\SUMO_Project\COSC6364_Project\configurations\maps\Braess_Homebrew_fixed1.net.xml"/>
        <route-files value="./configurations/Rounds/Braess_Homebrew_fixed1.net.xml-test-0/Macroscopic_DUE/004/Trips_File_004.rou.xml"/>
    </input>

    <output>
        <summary-output value="./configurations/Rounds/Braess_Homebrew_fixed1.net.xml-test-0/Macroscopic_DUE/004/summary.xml"/>
        <tripinfo-output value="./configurations/Rounds/Braess_Homebrew_fixed1.net.xml-test-0/Macroscopic_DUE/004/trips.trips.xml"/>
        <statistic-output value="./configurations/Rounds/Braess_Homebrew_fixed1.net.xml-test-0/Macroscopic_DUE/004/stats_output.xml"/>
    </output>

    <time>
        <begin value="0"/>
    </time>

    <report>
        <log value="./configurations/Rounds/Braess_Homebrew_fixed1.net.xml-test-0/Macroscopic_DUE/004/log.sumo.log"/>
        <no-step-log value="true"/>
    </report>

    <gui_only>
        <quit-on-end value="true"/>
    </gui_only>

</configuration>
-->

<tripinfos xmlns:xsi="http://www.w3.org/2001/XMLSchema-instance" xsi:noNamespaceSchemaLocation="http://sumo.dlr.de/xsd/tripinfo_file.xsd">
    <tripinfo id="2" depart="0.00" departLane="E0_0" departPos="5.10" departSpeed="19.50" departDelay="0.00" arrival="94.00" arrivalLane="E3_0" arrivalPos="90.46" arrivalSpeed="28.43" duration="94.00" routeLength="1314.99" waitingTime="0.00" waitingCount="0" stopTime="0.00" timeLoss="9.90" rerouteNo="0" devices="tripinfo_2" vType="DEFAULT_VEHTYPE" speedFactor="0.98" vaporized=""/>
    <tripinfo id="4" depart="2.00" departLane="E0_0" departPos="5.10" departSpeed="14.44" departDelay="1.00" arrival="96.00" arrivalLane="E3_0" arrivalPos="90.46" arrivalSpeed="31.51" duration="94.00" routeLength="1314.99" waitingTime="0.00" waitingCount="0" stopTime="0.00" timeLoss="25.07" rerouteNo="0" devices="tripinfo_4" vType="DEFAULT_VEHTYPE" speedFactor="1.20" vaporized=""/>
    <tripinfo id="5" depart="3.00" departLane="E0_0" departPos="5.10" departSpeed="10.75" departDelay="2.00" arrival="97.00" arrivalLane="E3_0" arrivalPos="90.46" arrivalSpeed="31.20" duration="94.00" routeLength="1314.99" waitingTime="0.00" waitingCount="0" stopTime="0.00" timeLoss="15.43" rerouteNo="0" devices="tripinfo_5" vType="DEFAULT_VEHTYPE" speedFactor="1.05" vaporized=""/>
    <tripinfo id="7" depart="5.00" departLane="E0_0" departPos="5.10" departSpeed="3.06" departDelay="2.00" arrival="111.00" arrivalLane="E3_0" arrivalPos="90.46" arrivalSpeed="27.00" duration="106.00" routeLength="1314.99" waitingTime="0.00" waitingCount="0" stopTime="0.00" timeLoss="17.93" rerouteNo="0" devices="tripinfo_7" vType="DEFAULT_VEHTYPE" speedFactor="0.94" vaporized=""/>
    <tripinfo id="9" depart="10.00" departLane="E0_0" departPos="5.10" departSpeed="5.15" departDelay="3.00" arrival="112.00" arrivalLane="E3_0" arrivalPos="90.46" arrivalSpeed="29.74" duration="102.00" routeLength="1314.99" waitingTime="0.00" waitingCount="0" stopTime="0.00" timeLoss="26.63" rerouteNo="0" devices="tripinfo_9" vType="DEFAULT_VEHTYPE" speedFactor="1.09" vaporized=""/>
    <tripinfo id="10" depart="12.00" departLane="E0_0" departPos="5.10" departSpeed="2.48" departDelay="5.00" arrival="120.00" arrivalLane="E3_0" arrivalPos="90.46" arrivalSpeed="26.75" duration="108.00" routeLength="1314.99" waitingTime="0.00" waitingCount="0" stopTime="0.00" timeLoss="18.94" rerouteNo="0" devices="tripinfo_10" vType="DEFAULT_VEHTYPE" speedFactor="0.92" vaporized=""/>
    <tripinfo id="13" depart="20.00" departLane="E0_0" departPos="5.10" departSpeed="7.42" departDelay="10.00" arrival="125.00" arrivalLane="E3_0" arrivalPos="90.46" arrivalSpeed="26.54" duration="105.00" routeLength="1314.99" waitingTime="0.00" waitingCount="0" stopTime="0.00" timeLoss="16.23" rerouteNo="0" devices="tripinfo_13" vType="DEFAULT_VEHTYPE" speedFactor="0.93" vaporized=""/>
    <tripinfo id="15" depart="24.00" departLane="E0_0" departPos="5.10" departSpeed="7.93" departDelay="11.00" arrival="130.00" arrivalLane="E3_0" arrivalPos="90.46" arrivalSpeed="26.98" duration="106.00" routeLength="1314.99" waitingTime="0.00" waitingCount="0" stopTime="0.00" timeLoss="18.41" rerouteNo="0" devices="tripinfo_15" vType="DEFAULT_VEHTYPE" speedFactor="0.94" vaporized=""/>
    <tripinfo id="16" depart="25.00" departLane="E0_0" departPos="5.10" departSpeed="3.59" departDelay="12.00" arrival="131.00" arrivalLane="E3_0" arrivalPos="90.46" arrivalSpeed="29.51" duration="106.00" routeLength="1314.99" waitingTime="0.00" waitingCount="0" stopTime="0.00" timeLoss="30.49" rerouteNo="0" devices="tripinfo_16" vType="DEFAULT_VEHTYPE" speedFactor="1.08" vaporized=""/>
    <tripinfo id="17" depart="27.00" departLane="E0_0" departPos="5.10" departSpeed="3.19" departDelay="12.00" arrival="133.00" arrivalLane="E3_0" arrivalPos="90.46" arrivalSpeed="29.51" duration="106.00" routeLength="1314.99" waitingTime="0.00" waitingCount="0" stopTime="0.00" timeLoss="24.50" rerouteNo="0" devices="tripinfo_17" vType="DEFAULT_VEHTYPE" speedFactor="1.01" vaporized=""/>
    <tripinfo id="18" depart="29.00" departLane="E0_0" departPos="5.10" departSpeed="1.05" departDelay="13.00" arrival="134.00" arrivalLane="E3_0" arrivalPos="90.46" arrivalSpeed="30.76" duration="105.00" routeLength="1314.99" waitingTime="0.00" waitingCount="0" stopTime="0.00" timeLoss="25.33" rerouteNo="0" devices="tripinfo_18" vType="DEFAULT_VEHTYPE" speedFactor="1.03" vaporized=""/>
    <tripinfo id="19" depart="33.00" departLane="E0_0" departPos="5.10" departSpeed="6.09" departDelay="17.00" arrival="143.00" arrivalLane="E3_0" arrivalPos="90.46" arrivalSpeed="25.95" duration="110.00" routeLength="1314.99" waitingTime="0.00" waitingCount="0" stopTime="0.00" timeLoss="17.86" rerouteNo="0" devices="tripinfo_19" vType="DEFAULT_VEHTYPE" speedFactor="0.89" vaporized=""/>
    <tripinfo id="25" depart="45.00" departLane="E0_0" departPos="5.10" departSpeed="6.21" departDelay="23.00" arrival="145.00" arrivalLane="E3_0" arrivalPos="90.46" arrivalSpeed="30.88" duration="100.00" routeLength="1314.99" waitingTime="0.00" waitingCount="0" stopTime="0.00" timeLoss="28.43" rerouteNo="0" devices="tripinfo_25" vType="DEFAULT_VEHTYPE" speedFactor="1.15" vaporized=""/>
    <tripinfo id="26" depart="47.00" departLane="E0_0" departPos="5.10" departSpeed="6.05" departDelay="25.00" arrival="146.00" arrivalLane="E3_0" arrivalPos="90.46" arrivalSpeed="30.36" duration="99.00" routeLength="1314.99" waitingTime="0.00" waitingCount="0" stopTime="0.00" timeLoss="25.43" rerouteNo="0" devices="tripinfo_26" vType="DEFAULT_VEHTYPE" speedFactor="1.12" vaporized=""/>
    <tripinfo id="27" depart="49.00" departLane="E0_0" departPos="5.10" departSpeed="6.90" departDelay="26.00" arrival="153.00" arrivalLane="E3_0" arrivalPos="90.46" arrivalSpeed="29.52" duration="104.00" routeLength="1314.99" waitingTime="0.00" waitingCount="0" stopTime="0.00" timeLoss="20.86" rerouteNo="0" devices="tripinfo_27" vType="DEFAULT_VEHTYPE" speedFactor="0.99" vaporized=""/>
    <tripinfo id="29" depart="53.00" departLane="E0_0" departPos="5.10" departSpeed="0.58" departDelay="28.00" arrival="155.00" arrivalLane="E3_0" arrivalPos="90.46" arrivalSpeed="30.05" duration="102.00" routeLength="1314.99" waitingTime="0.00" waitingCount="0" stopTime="0.00" timeLoss="21.52" rerouteNo="0" devices="tripinfo_29" vType="DEFAULT_VEHTYPE" speedFactor="1.02" vaporized=""/>
    <tripinfo id="30" depart="56.00" departLane="E0_0" departPos="5.10" departSpeed="1.03" departDelay="31.00" arrival="163.00" arrivalLane="E3_0" arrivalPos="90.46" arrivalSpeed="27.98" duration="107.00" routeLength="1314.99" waitingTime="0.00" waitingCount="0" stopTime="0.00" timeLoss="19.95" rerouteNo="0" devices="tripinfo_30" vType="DEFAULT_VEHTYPE" speedFactor="0.94" vaporized=""/>
    <tripinfo id="31" depart="59.00" departLane="E0_0" departPos="5.10" departSpeed="0.12" departDelay="32.00" arrival="165.00" arrivalLane="E3_0" arrivalPos="90.46" arrivalSpeed="30.58" duration="106.00" routeLength="1314.99" waitingTime="0.00" waitingCount="0" stopTime="0.00" timeLoss="30.93" rerouteNo="0" devices="tripinfo_31" vType="DEFAULT_VEHTYPE" speedFactor="1.10" vaporized=""/>
    <tripinfo id="3" depart="1.00" departLane="E0_0" departPos="5.10" departSpeed="16.96" departDelay="1.00" arrival="175.00" arrivalLane="E3_0" arrivalPos="90.46" arrivalSpeed="24.68" duration="174.00" routeLength="1317.38" waitingTime="71.00" waitingCount="1" stopTime="0.00" timeLoss="94.75" rerouteNo="0" devices="tripinfo_3" vType="DEFAULT_VEHTYPE" speedFactor="1.08" vaporized=""/>
    <tripinfo id="32" depart="63.00" departLane="E0_0" departPos="5.10" departSpeed="6.92" departDelay="36.00" arrival="179.00" arrivalLane="E3_0" arrivalPos="90.46" arrivalSpeed="24.97" duration="116.00" routeLength="1314.99" waitingTime="0.00" waitingCount="0" stopTime="0.00" timeLoss="17.36" rerouteNo="0" devices="tripinfo_32" vType="DEFAULT_VEHTYPE" speedFactor="0.83" vaporized=""/>
    <tripinfo id="34" depart="67.00" departLane="E0_0" departPos="5.10" departSpeed="7.21" departDelay="38.00" arrival="180.00" arrivalLane="E3_0" arrivalPos="90.46" arrivalSpeed="26.66" duration="113.00" routeLength="1314.99" waitingTime="0.00" waitingCount="0" stopTime="0.00" timeLoss="36.06" rerouteNo="0" devices="tripinfo_34" vType="DEFAULT_VEHTYPE" speedFactor="1.07" vaporized=""/>
    <tripinfo id="6" depart="4.00" departLane="E0_0" departPos="5.10" departSpeed="7.88" departDelay="3.00" arrival="192.00" arrivalLane="E3_0" arrivalPos="90.46" arrivalSpeed="25.03" duration="188.00" routeLength="1317.38" waitingTime="77.00" waitingCount="2" stopTime="0.00" timeLoss="108.82" rerouteNo="0" devices="tripinfo_6" vType="DEFAULT_VEHTYPE" speedFactor="1.08" vaporized=""/>
    <tripinfo id="36" depart="71.00" departLane="E0_0" departPos="5.10" departSpeed="7.98" departDelay="42.00" arrival="196.00" arrivalLane="E3_0" arrivalPos="90.46" arrivalSpeed="22.23" duration="125.00" routeLength="1314.99" waitingTime="0.00" waitingCount="0" stopTime="0.00" timeLoss="18.82" rerouteNo="0" devices="tripinfo_36" vType="DEFAULT_VEHTYPE" speedFactor="0.77" vaporized=""/>
    <tripinfo id="38" depart="74.00" departLane="E0_0" departPos="5.10" departSpeed="0.86" departDelay="43.00" arrival="198.00" arrivalLane="E3_0" arrivalPos="90.46" arrivalSpeed="25.79" duration="124.00" routeLength="1314.99" waitingTime="0.00" waitingCount="0" stopTime="0.00" timeLoss="43.12" rerouteNo="0" devices="tripinfo_38" vType="DEFAULT_VEHTYPE" speedFactor="1.02" vaporized=""/>
    <tripinfo id="39" depart="78.00" departLane="E0_0" departPos="5.10" departSpeed="5.97" departDelay="47.00" arrival="199.00" arrivalLane="E3_0" arrivalPos="90.46" arrivalSpeed="25.50" duration="121.00" routeLength="1314.99" waitingTime="0.00" waitingCount="0" stopTime="0.00" timeLoss="27.56" rerouteNo="0" devices="tripinfo_39" vType="DEFAULT_VEHTYPE" speedFactor="0.88" vaporized=""/>
    <tripinfo id="40" depart="80.00" departLane="E0_0" departPos="5.10" departSpeed="6.97" departDelay="47.00" arrival="201.00" arrivalLane="E3_0" arrivalPos="90.46" arrivalSpeed="27.03" duration="121.00" routeLength="1314.99" waitingTime="0.00" waitingCount="0" stopTime="0.00" timeLoss="43.45" rerouteNo="0" devices="tripinfo_40" vType="DEFAULT_VEHTYPE" speedFactor="1.06" vaporized=""/>
    <tripinfo id="42" depart="84.00" departLane="E0_0" departPos="5.10" departSpeed="6.59" departDelay="49.00" arrival="202.00" arrivalLane="E3_0" arrivalPos="90.46" arrivalSpeed="25.13" duration="118.00" routeLength="1314.99" waitingTime="0.00" waitingCount="0" stopTime="0.00" timeLoss="39.81" rerouteNo="0" devices="tripinfo_42" vType="DEFAULT_VEHTYPE" speedFactor="1.05" vaporized=""/>
    <tripinfo id="43" depart="86.00" departLane="E0_0" departPos="5.10" departSpeed="5.64" departDelay="51.00" arrival="203.00" arrivalLane="E3_0" arrivalPos="90.46" arrivalSpeed="26.35" duration="117.00" routeLength="1314.99" waitingTime="0.00" waitingCount="0" stopTime="0.00" timeLoss="35.57" rerouteNo="0" devices="tripinfo_43" vType="DEFAULT_VEHTYPE" speedFactor="1.00" vaporized=""/>
    <tripinfo id="44" depart="88.00" departLane="E0_0" departPos="5.10" departSpeed="4.50" departDelay="53.00" arrival="205.00" arrivalLane="E3_0" arrivalPos="90.46" arrivalSpeed="27.82" duration="117.00" routeLength="1314.99" waitingTime="0.00" waitingCount="0" stopTime="0.00" timeLoss="42.37" rerouteNo="0" devices="tripinfo_44" vType="DEFAULT_VEHTYPE" speedFactor="1.10" vaporized=""/>
    <tripinfo id="45" depart="90.00" departLane="E0_0" departPos="5.10" departSpeed="1.06" departDelay="54.00" arrival="206.00" arrivalLane="E3_0" arrivalPos="90.46" arrivalSpeed="26.60" duration="116.00" routeLength="1314.99" waitingTime="0.00" waitingCount="0" stopTime="0.00" timeLoss="24.94" rerouteNo="0" devices="tripinfo_45" vType="DEFAULT_VEHTYPE" speedFactor="0.90" vaporized=""/>
    <tripinfo id="46" depart="94.00" departLane="E0_0" departPos="5.10" departSpeed="4.92" departDelay="57.00" arrival="208.00" arrivalLane="E3_0" arrivalPos="90.46" arrivalSpeed="28.19" duration="114.00" routeLength="1314.99" waitingTime="0.00" waitingCount="0" stopTime="0.00" timeLoss="28.19" rerouteNo="0" devices="tripinfo_46" vType="DEFAULT_VEHTYPE" speedFactor="0.96" vaporized=""/>
    <tripinfo id="49" depart="100.00" departLane="E0_0" departPos="5.10" departSpeed="3.53" departDelay="60.00" arrival="209.00" arrivalLane="E3_0" arrivalPos="90.46" arrivalSpeed="29.95" duration="109.00" routeLength="1314.99" waitingTime="0.00" waitingCount="0" stopTime="0.00" timeLoss="35.44" rerouteNo="0" devices="tripinfo_49" vType="DEFAULT_VEHTYPE" speedFactor="1.12" vaporized=""/>
    <tripinfo id="50" depart="103.00" departLane="E0_0" departPos="5.10" departSpeed="5.95" departDelay="63.00" arrival="211.00" arrivalLane="E3_0" arrivalPos="90.46" arrivalSpeed="29.54" duration="108.00" routeLength="1314.99" waitingTime="0.00" waitingCount="0" stopTime="0.00" timeLoss="25.03" rerouteNo="0" devices="tripinfo_50" vType="DEFAULT_VEHTYPE" speedFactor="1.00" vaporized=""/>
    <tripinfo id="51" depart="105.00" departLane="E0_0" departPos="5.10" departSpeed="6.03" departDelay="64.00" arrival="212.00" arrivalLane="E3_0" arrivalPos="90.46" arrivalSpeed="28.55" duration="107.00" routeLength="1314.99" waitingTime="0.00" waitingCount="0" stopTime="0.00" timeLoss="23.71" rerouteNo="0" devices="tripinfo_51" vType="DEFAULT_VEHTYPE" speedFactor="0.99" vaporized=""/>
    <tripinfo id="8" depart="8.00" departLane="E0_0" departPos="5.10" departSpeed="5.58" departDelay="2.00" arrival="222.00" arrivalLane="E3_0" arrivalPos="90.46" arrivalSpeed="23.40" duration="214.00" routeLength="1317.38" waitingTime="93.00" waitingCount="3" stopTime="0.00" timeLoss="129.38" rerouteNo="0" devices="tripinfo_8" vType="DEFAULT_VEHTYPE" speedFactor="1.02" vaporized=""/>
    <tripinfo id="53" depart="109.00" departLane="E0_0" departPos="5.10" departSpeed="2.18" departDelay="66.00" arrival="224.00" arrivalLane="E3_0" arrivalPos="90.46" arrivalSpeed="26.48" duration="115.00" routeLength="1314.99" waitingTime="0.00" waitingCount="0" stopTime="0.00" timeLoss="24.45" rerouteNo="0" devices="tripinfo_53" vType="DEFAULT_VEHTYPE" speedFactor="0.91" vaporized=""/>
    <tripinfo id="54" depart="112.00" departLane="E0_0" departPos="5.10" departSpeed="2.28" departDelay="69.00" arrival="226.00" arrivalLane="E3_0" arrivalPos="90.46" arrivalSpeed="27.40" duration="114.00" routeLength="1314.99" waitingTime="0.00" waitingCount="0" stopTime="0.00" timeLoss="27.06" rerouteNo="0" devices="tripinfo_54" vType="DEFAULT_VEHTYPE" speedFactor="0.95" vaporized=""/>
    <tripinfo id="56" depart="117.00" departLane="E0_0" departPos="5.10" departSpeed="0.15" departDelay="73.00" arrival="229.00" arrivalLane="E3_0" arrivalPos="90.46" arrivalSpeed="27.75" duration="112.00" routeLength="1314.99" waitingTime="0.00" waitingCount="0" stopTime="0.00" timeLoss="24.06" rerouteNo="0" devices="tripinfo_56" vType="DEFAULT_VEHTYPE" speedFactor="0.93" vaporized=""/>
    <tripinfo id="60" depart="128.00" departLane="E0_0" departPos="5.10" departSpeed="6.47" departDelay="78.00" arrival="239.00" arrivalLane="E3_0" arrivalPos="90.46" arrivalSpeed="26.81" duration="111.00" routeLength="1314.99" waitingTime="0.00" waitingCount="0" stopTime="0.00" timeLoss="21.71" rerouteNo="0" devices="tripinfo_60" vType="DEFAULT_VEHTYPE" speedFactor="0.92" vaporized=""/>
    <tripinfo id="62" depart="132.00" departLane="E0_0" departPos="5.10" departSpeed="6.74" departDelay="81.00" arrival="245.00" arrivalLane="E3_0" arrivalPos="90.46" arrivalSpeed="26.79" duration="113.00" routeLength="1314.99" waitingTime="0.00" waitingCount="0" stopTime="0.00" timeLoss="21.17" rerouteNo="0" devices="tripinfo_62" vType="DEFAULT_VEHTYPE" speedFactor="0.90" vaporized=""/>
    <tripinfo id="64" depart="136.00" departLane="E0_0" departPos="5.10" departSpeed="1.80" departDelay="82.00" arrival="246.00" arrivalLane="E3_0" arrivalPos="90.46" arrivalSpeed="28.78" duration="110.00" routeLength="1314.99" waitingTime="0.00" waitingCount="0" stopTime="0.00" timeLoss="34.07" rerouteNo="0" devices="tripinfo_64" vType="DEFAULT_VEHTYPE" speedFactor="1.08" vaporized=""/>
    <tripinfo id="65" depart="139.00" departLane="E0_0" departPos="5.10" departSpeed="0.63" departDelay="85.00" arrival="248.00" arrivalLane="E3_0" arrivalPos="90.46" arrivalSpeed="28.99" duration="109.00" routeLength="1314.99" waitingTime="0.00" waitingCount="0" stopTime="0.00" timeLoss="24.45" rerouteNo="0" devices="tripinfo_65" vType="DEFAULT_VEHTYPE" speedFactor="0.98" vaporized=""/>
    <tripinfo id="66" depart="143.00" departLane="E0_0" departPos="5.10" departSpeed="4.61" departDelay="89.00" arrival="249.00" arrivalLane="E3_0" arrivalPos="90.46" arrivalSpeed="28.53" duration="106.00" routeLength="1314.99" waitingTime="0.00" waitingCount="0" stopTime="0.00" timeLoss="21.78" rerouteNo="0" devices="tripinfo_66" vType="DEFAULT_VEHTYPE" speedFactor="0.98" vaporized=""/>
    <tripinfo id="68" depart="147.00" departLane="E0_0" departPos="5.10" departSpeed="3.15" departDelay="90.00" arrival="255.00" arrivalLane="E3_0" arrivalPos="90.46" arrivalSpeed="27.99" duration="108.00" routeLength="1314.99" waitingTime="0.00" waitingCount="0" stopTime="0.00" timeLoss="21.08" rerouteNo="0" devices="tripinfo_68" vType="DEFAULT_VEHTYPE" speedFactor="0.94" vaporized=""/>
    <tripinfo id="75" depart="166.00" departLane="E0_0" departPos="5.10" departSpeed="6.62" departDelay="94.00" arrival="257.00" arrivalLane="E3_0" arrivalPos="90.46" arrivalSpeed="31.89" duration="91.00" routeLength="1314.99" waitingTime="0.00" waitingCount="0" stopTime="0.00" timeLoss="15.92" rerouteNo="0" devices="tripinfo_75" vType="DEFAULT_VEHTYPE" speedFactor="1.10" vaporized=""/>
    <tripinfo id="76" depart="168.00" departLane="E0_0" departPos="5.10" departSpeed="5.66" departDelay="95.00" arrival="258.00" arrivalLane="E3_0" arrivalPos="90.46" arrivalSpeed="33.29" duration="90.00" routeLength="1314.99" waitingTime="0.00" waitingCount="0" stopTime="0.00" timeLoss="18.23" rerouteNo="0" devices="tripinfo_76" vType="DEFAULT_VEHTYPE" speedFactor="1.14" vaporized=""/>
    <tripinfo id="11" depart="15.00" departLane="E0_0" departPos="5.10" departSpeed="2.65" departDelay="5.00" arrival="268.00" arrivalLane="E3_0" arrivalPos="90.46" arrivalSpeed="24.09" duration="253.00" routeLength="1317.38" waitingTime="132.00" waitingCount="4" stopTime="0.00" timeLoss="176.54" rerouteNo="0" devices="tripinfo_11" vType="DEFAULT_VEHTYPE" speedFactor="1.12" vaporized=""/>
    <tripinfo id="80" depart="176.00" departLane="E0_0" departPos="5.10" departSpeed="3.28" departDelay="102.00" arrival="271.00" arrivalLane="E3_0" arrivalPos="90.46" arrivalSpeed="31.51" duration="95.00" routeLength="1314.99" waitingTime="0.00" waitingCount="0" stopTime="0.00" timeLoss="18.87" rerouteNo="0" devices="tripinfo_80" vType="DEFAULT_VEHTYPE" speedFactor="1.08" vaporized=""/>
    <tripinfo id="83" depart="183.00" departLane="E0_0" departPos="5.10" departSpeed="5.97" departDelay="108.00" arrival="279.00" arrivalLane="E3_0" arrivalPos="90.46" arrivalSpeed="31.87" duration="96.00" routeLength="1314.99" waitingTime="0.00" waitingCount="0" stopTime="0.00" timeLoss="19.22" rerouteNo="0" devices="tripinfo_83" vType="DEFAULT_VEHTYPE" speedFactor="1.06" vaporized=""/>
    <tripinfo id="86" depart="189.00" departLane="E0_0" departPos="5.10" departSpeed="3.52" departDelay="111.00" arrival="289.00" arrivalLane="E3_0" arrivalPos="90.46" arrivalSpeed="29.58" duration="100.00" routeLength="1314.99" waitingTime="0.00" waitingCount="0" stopTime="0.00" timeLoss="20.01" rerouteNo="0" devices="tripinfo_86" vType="DEFAULT_VEHTYPE" speedFactor="1.02" vaporized=""/>
    <tripinfo id="88" depart="193.00" departLane="E0_0" departPos="5.10" departSpeed="0.00" departDelay="114.00" arrival="297.00" arrivalLane="E3_0" arrivalPos="90.46" arrivalSpeed="28.62" duration="104.00" routeLength="1314.99" waitingTime="1.00" waitingCount="1" stopTime="0.00" timeLoss="19.25" rerouteNo="0" devices="tripinfo_88" vType="DEFAULT_VEHTYPE" speedFactor="0.97" vaporized=""/>
    <tripinfo id="89" depart="197.00" departLane="E0_0" departPos="5.10" departSpeed="4.73" departDelay="116.00" arrival="298.00" arrivalLane="E3_0" arrivalPos="90.46" arrivalSpeed="29.62" duration="101.00" routeLength="1314.99" waitingTime="0.00" waitingCount="0" stopTime="0.00" timeLoss="31.36" rerouteNo="0" devices="tripinfo_89" vType="DEFAULT_VEHTYPE" speedFactor="1.18" vaporized=""/>
    <tripinfo id="92" depart="204.00" departLane="E0_0" departPos="5.10" departSpeed="1.36" departDelay="123.00" arrival="306.00" arrivalLane="E3_0" arrivalPos="90.46" arrivalSpeed="28.52" duration="102.00" routeLength="1314.99" waitingTime="0.00" waitingCount="0" stopTime="0.00" timeLoss="17.91" rerouteNo="0" devices="tripinfo_92" vType="DEFAULT_VEHTYPE" speedFactor="0.98" vaporized=""/>
    <tripinfo id="93" depart="207.00" departLane="E0_0" departPos="5.10" departSpeed="3.70" departDelay="123.00" arrival="312.00" arrivalLane="E3_0" arrivalPos="90.46" arrivalSpeed="28.00" duration="105.00" routeLength="1314.99" waitingTime="0.00" waitingCount="0" stopTime="0.00" timeLoss="17.57" rerouteNo="0" devices="tripinfo_93" vType="DEFAULT_VEHTYPE" speedFactor="0.94" vaporized=""/>
    <tripinfo id="94" depart="209.00" departLane="E0_0" departPos="5.10" departSpeed="2.29" departDelay="124.00" arrival="313.00" arrivalLane="E3_0" arrivalPos="90.46" arrivalSpeed="29.62" duration="104.00" routeLength="1314.99" waitingTime="0.00" waitingCount="0" stopTime="0.00" timeLoss="24.47" rerouteNo="0" devices="tripinfo_94" vType="DEFAULT_VEHTYPE" speedFactor="1.03" vaporized=""/>
    <tripinfo id="12" depart="18.00" departLane="E0_0" departPos="5.10" departSpeed="6.35" departDelay="8.00" arrival="323.00" arrivalLane="E3_0" arrivalPos="90.46" arrivalSpeed="24.63" duration="305.00" routeLength="1317.38" waitingTime="165.00" waitingCount="5" stopTime="0.00" timeLoss="209.44" rerouteNo="0" devices="tripinfo_12" vType="DEFAULT_VEHTYPE" speedFactor="0.90" vaporized=""/>
    <tripinfo id="96" depart="214.00" departLane="E0_0" departPos="5.10" departSpeed="1.30" departDelay="126.00" arrival="325.00" arrivalLane="E3_0" arrivalPos="90.46" arrivalSpeed="25.91" duration="111.00" routeLength="1314.99" waitingTime="0.00" waitingCount="0" stopTime="0.00" timeLoss="18.29" rerouteNo="0" devices="tripinfo_96" vType="DEFAULT_VEHTYPE" speedFactor="0.89" vaporized=""/>
    <tripinfo id="100" depart="224.00" departLane="E0_0" departPos="5.10" departSpeed="4.89" departDelay="132.00" arrival="326.00" arrivalLane="E3_0" arrivalPos="90.46" arrivalSpeed="28.71" duration="102.00" routeLength="1314.99" waitingTime="0.00" waitingCount="0" stopTime="0.00" timeLoss="27.85" rerouteNo="0" devices="tripinfo_100" vType="DEFAULT_VEHTYPE" speedFactor="1.10" vaporized=""/>
    <tripinfo id="102" depart="228.00" departLane="E0_0" departPos="5.10" departSpeed="5.90" departDelay="135.00" arrival="344.00" arrivalLane="E3_0" arrivalPos="90.46" arrivalSpeed="24.24" duration="116.00" routeLength="1314.99" waitingTime="0.00" waitingCount="0" stopTime="0.00" timeLoss="17.73" rerouteNo="0" devices="tripinfo_102" vType="DEFAULT_VEHTYPE" speedFactor="0.84" vaporized=""/>
    <tripinfo id="104" depart="232.00" departLane="E0_0" departPos="5.10" departSpeed="8.64" departDelay="138.00" arrival="345.00" arrivalLane="E3_0" arrivalPos="90.46" arrivalSpeed="26.56" duration="113.00" routeLength="1314.99" waitingTime="0.00" waitingCount="0" stopTime="0.00" timeLoss="33.90" rerouteNo="0" devices="tripinfo_104" vType="DEFAULT_VEHTYPE" speedFactor="1.04" vaporized=""/>
    <tripinfo id="106" depart="235.00" departLane="E0_0" departPos="5.10" departSpeed="2.59" departDelay="139.00" arrival="347.00" arrivalLane="E3_0" arrivalPos="90.46" arrivalSpeed="27.43" duration="112.00" routeLength="1314.99" waitingTime="0.00" waitingCount="0" stopTime="0.00" timeLoss="25.62" rerouteNo="0" devices="tripinfo_106" vType="DEFAULT_VEHTYPE" speedFactor="0.95" vaporized=""/>
    <tripinfo id="110" depart="245.00" departLane="E0_0" departPos="5.10" departSpeed="6.31" departDelay="144.00" arrival="348.00" arrivalLane="E3_0" arrivalPos="90.46" arrivalSpeed="28.75" duration="103.00" routeLength="1314.99" waitingTime="0.00" waitingCount="0" stopTime="0.00" timeLoss="21.82" rerouteNo="0" devices="tripinfo_110" vType="DEFAULT_VEHTYPE" speedFactor="1.01" vaporized=""/>
    <tripinfo id="111" depart="247.00" departLane="E0_0" departPos="5.10" departSpeed="6.25" departDelay="145.00" arrival="349.00" arrivalLane="E3_0" arrivalPos="90.46" arrivalSpeed="27.63" duration="102.00" routeLength="1314.99" waitingTime="0.00" waitingCount="0" stopTime="0.00" timeLoss="29.36" rerouteNo="0" devices="tripinfo_111" vType="DEFAULT_VEHTYPE" speedFactor="1.13" vaporized=""/>
    <tripinfo id="112" depart="249.00" departLane="E0_0" departPos="5.10" departSpeed="5.60" departDelay="146.00" arrival="351.00" arrivalLane="E3_0" arrivalPos="90.46" arrivalSpeed="29.59" duration="102.00" routeLength="1314.99" waitingTime="0.00" waitingCount="0" stopTime="0.00" timeLoss="33.96" rerouteNo="0" devices="tripinfo_112" vType="DEFAULT_VEHTYPE" speedFactor="1.21" vaporized=""/>
    <tripinfo id="14" depart="22.00" departLane="E0_0" departPos="5.10" departSpeed="7.47" departDelay="10.00" arrival="360.00" arrivalLane="E3_0" arrivalPos="90.46" arrivalSpeed="23.58" duration="338.00" routeLength="1317.38" waitingTime="195.00" waitingCount="6" stopTime="0.00" timeLoss="255.85" rerouteNo="0" devices="tripinfo_14" vType="DEFAULT_VEHTYPE" speedFactor="1.04" vaporized=""/>
    <tripinfo id="113" depart="251.00" departLane="E0_0" departPos="5.10" departSpeed="5.99" departDelay="148.00" arrival="365.00" arrivalLane="E3_0" arrivalPos="90.46" arrivalSpeed="25.60" duration="114.00" routeLength="1314.99" waitingTime="0.00" waitingCount="0" stopTime="0.00" timeLoss="20.73" rerouteNo="0" devices="tripinfo_113" vType="DEFAULT_VEHTYPE" speedFactor="0.89" vaporized=""/>
    <tripinfo id="114" depart="253.00" departLane="E0_0" departPos="5.10" departSpeed="4.78" departDelay="149.00" arrival="366.00" arrivalLane="E3_0" arrivalPos="90.46" arrivalSpeed="27.85" duration="113.00" routeLength="1314.99" waitingTime="0.00" waitingCount="0" stopTime="0.00" timeLoss="27.73" rerouteNo="0" devices="tripinfo_114" vType="DEFAULT_VEHTYPE" speedFactor="0.97" vaporized=""/>
    <tripinfo id="115" depart="255.00" departLane="E0_0" departPos="5.10" departSpeed="2.69" departDelay="150.00" arrival="368.00" arrivalLane="E3_0" arrivalPos="90.46" arrivalSpeed="29.06" duration="113.00" routeLength="1314.99" waitingTime="0.00" waitingCount="0" stopTime="0.00" timeLoss="33.28" rerouteNo="0" devices="tripinfo_115" vType="DEFAULT_VEHTYPE" speedFactor="1.04" vaporized=""/>
    <tripinfo id="120" depart="268.00" departLane="E0_0" departPos="5.10" departSpeed="6.37" departDelay="157.00" arrival="369.00" arrivalLane="E3_0" arrivalPos="90.46" arrivalSpeed="29.18" duration="101.00" routeLength="1314.99" waitingTime="0.00" waitingCount="0" stopTime="0.00" timeLoss="19.11" rerouteNo="0" devices="tripinfo_120" vType="DEFAULT_VEHTYPE" speedFactor="1.01" vaporized=""/>
    <tripinfo id="122" depart="272.00" departLane="E0_0" departPos="5.10" departSpeed="4.87" departDelay="157.00" arrival="375.00" arrivalLane="E3_0" arrivalPos="90.46" arrivalSpeed="28.70" duration="103.00" routeLength="1314.99" waitingTime="0.00" waitingCount="0" stopTime="0.00" timeLoss="20.56" rerouteNo="0" devices="tripinfo_122" vType="DEFAULT_VEHTYPE" speedFactor="1.00" vaporized=""/>
    <tripinfo id="20" depart="35.00" departLane="E0_0" departPos="5.10" departSpeed="6.06" departDelay="18.00" arrival="385.00" arrivalLane="E3_0" arrivalPos="90.46" arrivalSpeed="25.67" duration="350.00" routeLength="1317.38" waitingTime="203.00" waitingCount="7" stopTime="0.00" timeLoss="264.88" rerouteNo="0" devices="tripinfo_20" vType="DEFAULT_VEHTYPE" speedFactor="1.01" vaporized=""/>
    <tripinfo id="21" depart="37.00" departLane="E0_0" departPos="5.10" departSpeed="6.91" departDelay="19.00" arrival="387.00" arrivalLane="E3_0" arrivalPos="90.46" arrivalSpeed="25.91" duration="350.00" routeLength="1317.38" waitingTime="190.00" waitingCount="7" stopTime="0.00" timeLoss="251.32" rerouteNo="0" devices="tripinfo_21" vType="DEFAULT_VEHTYPE" speedFactor="0.87" vaporized=""/>