<?xml version="1.0" encoding="UTF-8"?>

<!-- generated on 2023-04-28 17:27:04 by Eclipse SUMO sumo Version 1.16.0
<configuration xmlns:xsi="http://www.w3.org/2001/XMLSchema-instance" xsi:noNamespaceSchemaLocation="http://sumo.dlr.de/xsd/sumoConfiguration.xsd">

    <input>
        <net-file value="016/../configurations/maps/Random_English.net.xml"/>
        <route-files value="016/Trips_File_016.rou.xml"/>
        <additional-files value="016/../edgedata.add.xml"/>
    </input>

    <output>
        <output-prefix value="016/"/>
        <summary-output value="016/../summary_016.xml"/>
        <tripinfo-output value="016/../tripinfo_016.xml"/>
    </output>

    <time>
        <begin value="0"/>
    </time>

    <processing>
        <route-steps value="200"/>
        <no-internal-links value="False"/>
        <time-to-teleport value="300"/>
        <time-to-teleport.highways value="0"/>
        <eager-insert value="False"/>
    </processing>

    <report>
        <verbose value="true"/>
        <no-warnings value="False"/>
        <log value="016/../iteration_016.sumo.log"/>
        <no-step-log value="true"/>
    </report>

    <mesoscopic>
        <mesosim value="true"/>
        <meso-recheck value="0"/>
    </mesoscopic>

    <random_number>
        <random value="False"/>
    </random_number>

</configuration>
-->

<tripinfos xmlns:xsi="http://www.w3.org/2001/XMLSchema-instance" xsi:noNamespaceSchemaLocation="http://sumo.dlr.de/xsd/tripinfo_file.xsd">
    <tripinfo id="15" depart="18.00" departLane="" departPos="0.00" departSpeed="15.60" departDelay="0.00" arrival="41.00" arrivalLane="" arrivalPos="168.49" arrivalSpeed="15.60" duration="23.00" routeLength="357.93" waitingTime="0.00" waitingCount="0" stopTime="0.00" timeLoss="0.00" rerouteNo="0" devices="tripinfo_15" vType="DEFAULT_VEHTYPE" speedFactor="1.12" vaporized=""/>
    <tripinfo id="17" depart="19.00" departLane="" departPos="0.00" departSpeed="12.87" departDelay="0.00" arrival="63.00" arrivalLane="" arrivalPos="216.28" arrivalSpeed="12.87" duration="44.00" routeLength="564.07" waitingTime="0.00" waitingCount="0" stopTime="0.00" timeLoss="0.00" rerouteNo="0" devices="tripinfo_17" vType="DEFAULT_VEHTYPE" speedFactor="0.93" vaporized=""/>
    <tripinfo id="2" depart="0.00" departLane="" departPos="0.00" departSpeed="14.72" departDelay="0.00" arrival="87.00" arrivalLane="" arrivalPos="105.25" arrivalSpeed="14.72" duration="87.00" routeLength="1271.85" waitingTime="0.00" waitingCount="0" stopTime="0.00" timeLoss="0.00" rerouteNo="0" devices="tripinfo_2" vType="DEFAULT_VEHTYPE" speedFactor="1.06" vaporized=""/>
    <tripinfo id="5" depart="3.00" departLane="" departPos="0.00" departSpeed="15.04" departDelay="0.00" arrival="90.00" arrivalLane="" arrivalPos="105.25" arrivalSpeed="15.04" duration="87.00" routeLength="1307.81" waitingTime="0.00" waitingCount="0" stopTime="0.00" timeLoss="0.00" rerouteNo="0" devices="tripinfo_5" vType="DEFAULT_VEHTYPE" speedFactor="1.08" vaporized=""/>
    <tripinfo id="4" depart="0.00" departLane="" departPos="0.00" departSpeed="14.03" departDelay="0.00" arrival="91.00" arrivalLane="" arrivalPos="232.80" arrivalSpeed="14.03" duration="91.00" routeLength="1275.27" waitingTime="0.00" waitingCount="0" stopTime="0.00" timeLoss="0.00" rerouteNo="0" devices="tripinfo_4" vType="DEFAULT_VEHTYPE" speedFactor="1.01" vaporized=""/>
    <tripinfo id="41" depart="48.00" departLane="" departPos="0.00" departSpeed="12.51" departDelay="0.00" arrival="99.00" arrivalLane="" arrivalPos="121.76" arrivalSpeed="12.51" duration="51.00" routeLength="631.91" waitingTime="0.00" waitingCount="0" stopTime="0.00" timeLoss="0.00" rerouteNo="0" devices="tripinfo_41" vType="DEFAULT_VEHTYPE" speedFactor="0.90" vaporized=""/>
    <tripinfo id="56" depart="59.00" departLane="" departPos="0.00" departSpeed="13.93" departDelay="0.00" arrival="105.00" arrivalLane="" arrivalPos="213.39" arrivalSpeed="13.93" duration="46.00" routeLength="635.30" waitingTime="0.00" waitingCount="0" stopTime="0.00" timeLoss="0.00" rerouteNo="0" devices="tripinfo_56" vType="DEFAULT_VEHTYPE" speedFactor="1.00" vaporized=""/>
    <tripinfo id="20" depart="23.00" departLane="" departPos="0.00" departSpeed="13.00" departDelay="0.00" arrival="106.00" arrivalLane="" arrivalPos="166.30" arrivalSpeed="13.00" duration="83.00" routeLength="1075.23" waitingTime="0.00" waitingCount="0" stopTime="0.00" timeLoss="0.00" rerouteNo="0" devices="tripinfo_20" vType="DEFAULT_VEHTYPE" speedFactor="0.94" vaporized=""/>
    <tripinfo id="8" depart="5.00" departLane="" departPos="0.00" departSpeed="14.53" departDelay="0.00" arrival="107.00" arrivalLane="" arrivalPos="121.76" arrivalSpeed="14.53" duration="102.00" routeLength="1475.69" waitingTime="0.00" waitingCount="0" stopTime="0.00" timeLoss="0.00" rerouteNo="0" devices="tripinfo_8" vType="DEFAULT_VEHTYPE" speedFactor="1.05" vaporized=""/>
    <tripinfo id="38" depart="46.00" departLane="" departPos="0.00" departSpeed="13.52" departDelay="0.00" arrival="107.00" arrivalLane="" arrivalPos="149.71" arrivalSpeed="13.52" duration="61.00" routeLength="811.68" waitingTime="0.00" waitingCount="0" stopTime="0.00" timeLoss="0.00" rerouteNo="0" devices="tripinfo_38" vType="DEFAULT_VEHTYPE" speedFactor="0.97" vaporized=""/>
    <tripinfo id="63" depart="68.00" departLane="" departPos="0.00" departSpeed="15.55" departDelay="0.00" arrival="112.00" arrivalLane="" arrivalPos="195.96" arrivalSpeed="15.55" duration="44.00" routeLength="681.40" waitingTime="0.00" waitingCount="0" stopTime="0.00" timeLoss="0.00" rerouteNo="0" devices="tripinfo_63" vType="DEFAULT_VEHTYPE" speedFactor="1.12" vaporized=""/>
    <tripinfo id="47" depart="52.00" departLane="" departPos="0.00" departSpeed="15.11" departDelay="0.00" arrival="115.00" arrivalLane="" arrivalPos="144.73" arrivalSpeed="15.11" duration="63.00" routeLength="939.92" waitingTime="0.00" waitingCount="0" stopTime="0.00" timeLoss="0.00" rerouteNo="0" devices="tripinfo_47" vType="DEFAULT_VEHTYPE" speedFactor="1.09" vaporized=""/>
    <tripinfo id="55" depart="57.00" departLane="" departPos="0.00" departSpeed="15.22" departDelay="0.00" arrival="115.00" arrivalLane="" arrivalPos="100.82" arrivalSpeed="15.22" duration="58.00" routeLength="881.71" waitingTime="0.00" waitingCount="0" stopTime="0.00" timeLoss="0.00" rerouteNo="0" devices="tripinfo_55" vType="DEFAULT_VEHTYPE" speedFactor="1.10" vaporized=""/>
    <tripinfo id="23" depart="30.00" departLane="" departPos="0.00" departSpeed="14.03" departDelay="0.00" arrival="116.00" arrivalLane="" arrivalPos="128.88" arrivalSpeed="14.03" duration="86.00" routeLength="1201.94" waitingTime="0.00" waitingCount="0" stopTime="0.00" timeLoss="0.00" rerouteNo="0" devices="tripinfo_23" vType="DEFAULT_VEHTYPE" speedFactor="1.01" vaporized=""/>
    <tripinfo id="29" depart="37.00" departLane="" departPos="0.00" departSpeed="13.18" departDelay="0.00" arrival="117.00" arrivalLane="" arrivalPos="122.29" arrivalSpeed="13.18" duration="80.00" routeLength="1051.16" waitingTime="0.00" waitingCount="0" stopTime="0.00" timeLoss="0.00" rerouteNo="0" devices="tripinfo_29" vType="DEFAULT_VEHTYPE" speedFactor="0.95" vaporized=""/>
    <tripinfo id="24" depart="30.00" departLane="" departPos="0.00" departSpeed="13.54" departDelay="0.00" arrival="118.00" arrivalLane="" arrivalPos="199.70" arrivalSpeed="13.54" duration="88.00" routeLength="1188.18" waitingTime="0.00" waitingCount="0" stopTime="0.00" timeLoss="0.00" rerouteNo="0" devices="tripinfo_24" vType="DEFAULT_VEHTYPE" speedFactor="0.97" vaporized=""/>
    <tripinfo id="87" depart="91.00" departLane="" departPos="0.00" departSpeed="13.56" departDelay="0.00" arrival="121.00" arrivalLane="" arrivalPos="147.90" arrivalSpeed="13.56" duration="30.00" routeLength="395.78" waitingTime="0.00" waitingCount="0" stopTime="0.00" timeLoss="0.00" rerouteNo="0" devices="tripinfo_87" vType="DEFAULT_VEHTYPE" speedFactor="0.98" vaporized=""/>
    <tripinfo id="84" depart="87.00" departLane="" departPos="0.00" departSpeed="14.12" departDelay="0.00" arrival="122.00" arrivalLane="" arrivalPos="215.54" arrivalSpeed="14.12" duration="35.00" routeLength="482.43" waitingTime="0.00" waitingCount="0" stopTime="0.00" timeLoss="0.00" rerouteNo="0" devices="tripinfo_84" vType="DEFAULT_VEHTYPE" speedFactor="1.02" vaporized=""/>
    <tripinfo id="26" depart="33.00" departLane="" departPos="0.00" departSpeed="11.47" departDelay="0.00" arrival="126.00" arrivalLane="" arrivalPos="136.73" arrivalSpeed="11.47" duration="93.00" routeLength="1056.84" waitingTime="0.00" waitingCount="0" stopTime="0.00" timeLoss="0.00" rerouteNo="0" devices="tripinfo_26" vType="DEFAULT_VEHTYPE" speedFactor="0.83" vaporized=""/>
    <tripinfo id="73" depart="79.00" departLane="" departPos="0.00" departSpeed="13.51" departDelay="0.00" arrival="126.00" arrivalLane="" arrivalPos="137.93" arrivalSpeed="13.51" duration="47.00" routeLength="630.56" waitingTime="0.00" waitingCount="0" stopTime="0.00" timeLoss="0.00" rerouteNo="0" devices="tripinfo_73" vType="DEFAULT_VEHTYPE" speedFactor="0.97" vaporized=""/>
    <tripinfo id="13" depart="14.00" departLane="" departPos="0.00" departSpeed="14.26" departDelay="0.00" arrival="128.00" arrivalLane="" arrivalPos="112.15" arrivalSpeed="14.26" duration="114.00" routeLength="1623.41" waitingTime="0.00" waitingCount="0" stopTime="0.00" timeLoss="0.00" rerouteNo="0" devices="tripinfo_13" vType="DEFAULT_VEHTYPE" speedFactor="1.03" vaporized=""/>
    <tripinfo id="58" depart="63.00" departLane="" departPos="0.00" departSpeed="12.49" departDelay="0.00" arrival="133.00" arrivalLane="" arrivalPos="100.82" arrivalSpeed="12.49" duration="70.00" routeLength="852.50" waitingTime="1.13" waitingCount="0" stopTime="0.00" timeLoss="1.13" rerouteNo="0" devices="tripinfo_58" vType="DEFAULT_VEHTYPE" speedFactor="0.90" vaporized=""/>
    <tripinfo id="21" depart="24.00" departLane="" departPos="0.00" departSpeed="16.09" departDelay="0.00" arrival="137.00" arrivalLane="" arrivalPos="177.06" arrivalSpeed="16.09" duration="113.00" routeLength="1810.74" waitingTime="0.00" waitingCount="0" stopTime="0.00" timeLoss="0.00" rerouteNo="0" devices="tripinfo_21" vType="DEFAULT_VEHTYPE" speedFactor="1.16" vaporized=""/>
    <tripinfo id="62" depart="66.00" departLane="" departPos="0.00" departSpeed="15.04" departDelay="0.00" arrival="137.00" arrivalLane="" arrivalPos="198.52" arrivalSpeed="15.03" duration="71.00" routeLength="1056.32" waitingTime="0.00" waitingCount="0" stopTime="0.00" timeLoss="0.00" rerouteNo="0" devices="tripinfo_62" vType="DEFAULT_VEHTYPE" speedFactor="1.08" vaporized=""/>
    <tripinfo id="90" depart="96.00" departLane="" departPos="0.00" departSpeed="13.99" departDelay="0.00" arrival="138.00" arrivalLane="" arrivalPos="136.94" arrivalSpeed="13.99" duration="42.00" routeLength="577.58" waitingTime="0.00" waitingCount="0" stopTime="0.00" timeLoss="0.00" rerouteNo="0" devices="tripinfo_90" vType="DEFAULT_VEHTYPE" speedFactor="1.01" vaporized=""/>
    <tripinfo id="53" depart="55.00" departLane="" departPos="0.00" departSpeed="16.24" departDelay="0.00" arrival="139.00" arrivalLane="" arrivalPos="132.78" arrivalSpeed="16.24" duration="84.00" routeLength="1321.24" waitingTime="0.00" waitingCount="0" stopTime="0.00" timeLoss="2.50" rerouteNo="0" devices="tripinfo_53" vType="DEFAULT_VEHTYPE" speedFactor="1.17" vaporized=""/>
    <tripinfo id="100" depart="103.00" departLane="" departPos="0.00" departSpeed="15.58" departDelay="0.00" arrival="139.00" arrivalLane="" arrivalPos="103.22" arrivalSpeed="15.58" duration="36.00" routeLength="559.24" waitingTime="0.00" waitingCount="0" stopTime="0.00" timeLoss="0.00" rerouteNo="0" devices="tripinfo_100" vType="DEFAULT_VEHTYPE" speedFactor="1.12" vaporized=""/>
    <tripinfo id="14" depart="17.00" departLane="" departPos="0.00" departSpeed="14.54" departDelay="0.00" arrival="143.00" arrivalLane="" arrivalPos="137.51" arrivalSpeed="14.54" duration="126.00" routeLength="1824.41" waitingTime="0.00" waitingCount="0" stopTime="0.00" timeLoss="0.00" rerouteNo="0" devices="tripinfo_14" vType="DEFAULT_VEHTYPE" speedFactor="1.05" vaporized=""/>
    <tripinfo id="49" depart="53.00" departLane="" departPos="0.00" departSpeed="12.51" departDelay="0.00" arrival="149.00" arrivalLane="" arrivalPos="107.93" arrivalSpeed="12.51" duration="96.00" routeLength="1193.53" waitingTime="0.54" waitingCount="0" stopTime="0.00" timeLoss="0.54" rerouteNo="0" devices="tripinfo_49" vType="DEFAULT_VEHTYPE" speedFactor="0.90" vaporized=""/>
    <tripinfo id="71" depart="79.00" departLane="" departPos="0.00" departSpeed="14.20" departDelay="0.00" arrival="149.00" arrivalLane="" arrivalPos="116.58" arrivalSpeed="14.20" duration="70.00" routeLength="989.32" waitingTime="0.00" waitingCount="0" stopTime="0.00" timeLoss="0.00" rerouteNo="0" devices="tripinfo_71" vType="DEFAULT_VEHTYPE" speedFactor="1.02" vaporized=""/>
    <tripinfo id="64" depart="68.00" departLane="" departPos="0.00" departSpeed="14.11" departDelay="0.00" arrival="150.00" arrivalLane="" arrivalPos="116.98" arrivalSpeed="14.11" duration="82.00" routeLength="1150.94" waitingTime="0.00" waitingCount="0" stopTime="0.00" timeLoss="0.00" rerouteNo="0" devices="tripinfo_64" vType="DEFAULT_VEHTYPE" speedFactor="1.02" vaporized=""/>
    <tripinfo id="78" depart="82.00" departLane="" departPos="0.00" departSpeed="14.34" departDelay="0.00" arrival="150.00" arrivalLane="" arrivalPos="91.86" arrivalSpeed="14.34" duration="68.00" routeLength="970.72" waitingTime="0.00" waitingCount="0" stopTime="0.00" timeLoss="0.12" rerouteNo="0" devices="tripinfo_78" vType="DEFAULT_VEHTYPE" speedFactor="1.03" vaporized=""/>
    <tripinfo id="82" depart="86.00" departLane="" departPos="0.00" departSpeed="14.37" departDelay="0.00" arrival="150.00" arrivalLane="" arrivalPos="165.92" arrivalSpeed="14.37" duration="64.00" routeLength="912.58" waitingTime="0.00" waitingCount="0" stopTime="0.00" timeLoss="0.00" rerouteNo="0" devices="tripinfo_82" vType="DEFAULT_VEHTYPE" speedFactor="1.03" vaporized=""/>
    <tripinfo id="66" depart="73.00" departLane="" departPos="0.00" departSpeed="13.02" departDelay="0.00" arrival="151.00" arrivalLane="" arrivalPos="136.99" arrivalSpeed="13.02" duration="78.00" routeLength="1003.18" waitingTime="0.00" waitingCount="0" stopTime="0.00" timeLoss="0.00" rerouteNo="0" devices="tripinfo_66" vType="DEFAULT_VEHTYPE" speedFactor="0.94" vaporized=""/>
    <tripinfo id="44" depart="50.00" departLane="" departPos="0.00" departSpeed="15.17" departDelay="0.00" arrival="152.00" arrivalLane="" arrivalPos="200.29" arrivalSpeed="15.17" duration="102.00" routeLength="1532.49" waitingTime="0.00" waitingCount="0" stopTime="0.00" timeLoss="0.00" rerouteNo="0" devices="tripinfo_44" vType="DEFAULT_VEHTYPE" speedFactor="1.09" vaporized=""/>
    <tripinfo id="50" depart="54.00" departLane="" departPos="0.00" departSpeed="12.18" departDelay="0.00" arrival="154.00" arrivalLane="" arrivalPos="145.29" arrivalSpeed="12.18" duration="100.00" routeLength="1206.30" waitingTime="0.48" waitingCount="0" stopTime="0.00" timeLoss="0.48" rerouteNo="0" devices="tripinfo_50" vType="DEFAULT_VEHTYPE" speedFactor="0.88" vaporized=""/>
    <tripinfo id="39" depart="48.00" departLane="" departPos="0.00" departSpeed="16.39" departDelay="0.00" arrival="156.00" arrivalLane="" arrivalPos="221.91" arrivalSpeed="16.39" duration="108.00" routeLength="1759.90" waitingTime="0.00" waitingCount="0" stopTime="0.00" timeLoss="0.34" rerouteNo="0" devices="tripinfo_39" vType="DEFAULT_VEHTYPE" speedFactor="1.18" vaporized=""/>
    <tripinfo id="83" depart="86.00" departLane="" departPos="0.00" departSpeed="13.86" departDelay="0.00" arrival="156.00" arrivalLane="" arrivalPos="149.71" arrivalSpeed="13.86" duration="70.00" routeLength="957.45" waitingTime="0.00" waitingCount="0" stopTime="0.00" timeLoss="0.00" rerouteNo="0" devices="tripinfo_83" vType="DEFAULT_VEHTYPE" speedFactor="1.00" vaporized=""/>
    <tripinfo id="37" depart="46.00" departLane="" departPos="0.00" departSpeed="14.16" departDelay="0.00" arrival="157.00" arrivalLane="" arrivalPos="182.56" arrivalSpeed="14.16" duration="111.00" routeLength="1558.19" waitingTime="0.00" waitingCount="0" stopTime="0.00" timeLoss="0.00" rerouteNo="0" devices="tripinfo_37" vType="DEFAULT_VEHTYPE" speedFactor="1.02" vaporized=""/>
    <tripinfo id="22" depart="28.00" departLane="" departPos="0.00" departSpeed="14.14" departDelay="0.00" arrival="161.00" arrivalLane="" arrivalPos="210.48" arrivalSpeed="14.14" duration="133.00" routeLength="1859.25" waitingTime="0.83" waitingCount="0" stopTime="0.00" timeLoss="0.85" rerouteNo="0" devices="tripinfo_22" vType="DEFAULT_VEHTYPE" speedFactor="1.02" vaporized=""/>
    <tripinfo id="30" depart="38.00" departLane="" departPos="0.00" departSpeed="15.72" departDelay="0.00" arrival="163.00" arrivalLane="" arrivalPos="89.82" arrivalSpeed="15.72" duration="125.00" routeLength="1965.14" waitingTime="0.00" waitingCount="0" stopTime="0.00" timeLoss="0.00" rerouteNo="0" devices="tripinfo_30" vType="DEFAULT_VEHTYPE" speedFactor="1.13" vaporized=""/>
    <tripinfo id="9" depart="6.00" departLane="" departPos="0.00" departSpeed="12.31" departDelay="0.00" arrival="164.00" arrivalLane="" arrivalPos="134.42" arrivalSpeed="12.31" duration="158.00" routeLength="1934.75" waitingTime="0.00" waitingCount="0" stopTime="0.00" timeLoss="0.00" rerouteNo="0" devices="tripinfo_9" vType="DEFAULT_VEHTYPE" speedFactor="0.89" vaporized=""/>
    <tripinfo id="89" depart="95.00" departLane="" departPos="0.00" departSpeed="14.48" departDelay="0.00" arrival="166.00" arrivalLane="" arrivalPos="170.54" arrivalSpeed="14.48" duration="71.00" routeLength="1020.15" waitingTime="0.00" waitingCount="0" stopTime="0.00" timeLoss="0.00" rerouteNo="0" devices="tripinfo_89" vType="DEFAULT_VEHTYPE" speedFactor="1.04" vaporized=""/>
    <tripinfo id="101" depart="103.00" departLane="" departPos="0.00" departSpeed="15.24" departDelay="0.00" arrival="166.00" arrivalLane="" arrivalPos="214.96" arrivalSpeed="15.24" duration="63.00" routeLength="947.07" waitingTime="0.00" waitingCount="0" stopTime="0.00" timeLoss="0.00" rerouteNo="0" devices="tripinfo_101" vType="DEFAULT_VEHTYPE" speedFactor="1.10" vaporized=""/>
    <tripinfo id="151" depart="153.00" departLane="" departPos="0.00" departSpeed="14.44" departDelay="0.00" arrival="166.00" arrivalLane="" arrivalPos="86.83" arrivalSpeed="14.44" duration="13.00" routeLength="173.66" waitingTime="0.00" waitingCount="0" stopTime="0.00" timeLoss="0.00" rerouteNo="0" devices="tripinfo_151" vType="DEFAULT_VEHTYPE" speedFactor="1.04" vaporized=""/>
    <tripinfo id="105" depart="106.00" departLane="" departPos="0.00" departSpeed="13.23" departDelay="0.00" arrival="171.00" arrivalLane="" arrivalPos="213.48" arrivalSpeed="13.23" duration="65.00" routeLength="857.24" waitingTime="0.00" waitingCount="0" stopTime="0.00" timeLoss="0.00" rerouteNo="0" devices="tripinfo_105" vType="DEFAULT_VEHTYPE" speedFactor="0.95" vaporized=""/>
    <tripinfo id="33" depart="41.00" departLane="" departPos="0.00" departSpeed="16.03" departDelay="0.00" arrival="172.00" arrivalLane="" arrivalPos="105.93" arrivalSpeed="16.03" duration="131.00" routeLength="2007.65" waitingTime="0.25" waitingCount="0" stopTime="0.00" timeLoss="5.23" rerouteNo="0" devices="tripinfo_33" vType="DEFAULT_VEHTYPE" speedFactor="1.15" vaporized=""/>
    <tripinfo id="35" depart="43.00" departLane="" departPos="0.00" departSpeed="16.28" departDelay="0.00" arrival="173.00" arrivalLane="" arrivalPos="129.32" arrivalSpeed="16.28" duration="130.00" routeLength="2073.47" waitingTime="0.00" waitingCount="0" stopTime="0.00" timeLoss="2.49" rerouteNo="0" devices="tripinfo_35" vType="DEFAULT_VEHTYPE" speedFactor="1.17" vaporized=""/>
    <tripinfo id="68" depart="75.00" departLane="" departPos="0.00" departSpeed="12.60" departDelay="0.00" arrival="173.00" arrivalLane="" arrivalPos="211.50" arrivalSpeed="12.60" duration="98.00" routeLength="1232.90" waitingTime="0.00" waitingCount="0" stopTime="0.00" timeLoss="0.00" rerouteNo="0" devices="tripinfo_68" vType="DEFAULT_VEHTYPE" speedFactor="0.91" vaporized=""/>
    <tripinfo id="75" depart="80.00" departLane="" departPos="0.00" departSpeed="14.66" departDelay="0.00" arrival="174.00" arrivalLane="" arrivalPos="95.50" arrivalSpeed="14.66" duration="94.00" routeLength="1367.57" waitingTime="0.00" waitingCount="0" stopTime="0.00" timeLoss="0.00" rerouteNo="0" devices="tripinfo_75" vType="DEFAULT_VEHTYPE" speedFactor="1.06" vaporized=""/>
    <tripinfo id="122" depart="120.00" departLane="" departPos="0.00" departSpeed="13.08" departDelay="0.00" arrival="174.00" arrivalLane="" arrivalPos="145.46" arrivalSpeed="13.08" duration="54.00" routeLength="700.63" waitingTime="0.00" waitingCount="0" stopTime="0.00" timeLoss="0.00" rerouteNo="0" devices="tripinfo_122" vType="DEFAULT_VEHTYPE" speedFactor="0.94" vaporized=""/>
    <tripinfo id="69" depart="76.00" departLane="" departPos="0.00" departSpeed="12.70" departDelay="0.00" arrival="175.00" arrivalLane="" arrivalPos="112.42" arrivalSpeed="12.70" duration="99.00" routeLength="1253.57" waitingTime="0.00" waitingCount="0" stopTime="0.00" timeLoss="0.00" rerouteNo="0" devices="tripinfo_69" vType="DEFAULT_VEHTYPE" speedFactor="0.91" vaporized=""/>
    <tripinfo id="43" depart="50.00" departLane="" departPos="0.00" departSpeed="13.29" departDelay="0.00" arrival="176.00" arrivalLane="" arrivalPos="165.60" arrivalSpeed="13.29" duration="126.00" routeLength="1670.02" waitingTime="0.00" waitingCount="0" stopTime="0.00" timeLoss="0.00" rerouteNo="0" devices="tripinfo_43" vType="DEFAULT_VEHTYPE" speedFactor="0.96" vaporized=""/>
    <tripinfo id="6" depart="4.00" departLane="" departPos="0.00" departSpeed="14.31" departDelay="0.00" arrival="177.00" arrivalLane="" arrivalPos="136.29" arrivalSpeed="14.31" duration="173.00" routeLength="2473.90" waitingTime="0.11" waitingCount="0" stopTime="0.00" timeLoss="0.11" rerouteNo="0" devices="tripinfo_6" vType="DEFAULT_VEHTYPE" speedFactor="1.03" vaporized=""/>
    <tripinfo id="19" depart="23.00" departLane="" departPos="0.00" departSpeed="13.08" departDelay="0.00" arrival="177.00" arrivalLane="" arrivalPos="195.19" arrivalSpeed="13.08" duration="154.00" routeLength="2007.33" waitingTime="0.00" waitingCount="0" stopTime="0.00" timeLoss="0.00" rerouteNo="0" devices="tripinfo_19" vType="DEFAULT_VEHTYPE" speedFactor="0.94" vaporized=""/>
    <tripinfo id="40" depart="48.00" departLane="" departPos="0.00" departSpeed="15.31" departDelay="0.00" arrival="177.00" arrivalLane="" arrivalPos="234.48" arrivalSpeed="15.31" duration="129.00" routeLength="1893.27" waitingTime="1.60" waitingCount="0" stopTime="0.00" timeLoss="4.38" rerouteNo="0" devices="tripinfo_40" vType="DEFAULT_VEHTYPE" speedFactor="1.10" vaporized=""/>
    <tripinfo id="16" depart="19.00" departLane="" departPos="0.00" departSpeed="13.77" departDelay="0.00" arrival="178.00" arrivalLane="" arrivalPos="210.87" arrivalSpeed="13.77" duration="159.00" routeLength="2184.64" waitingTime="0.00" waitingCount="0" stopTime="0.00" timeLoss="0.00" rerouteNo="0" devices="tripinfo_16" vType="DEFAULT_VEHTYPE" speedFactor="0.99" vaporized=""/>
    <tripinfo id="32" depart="41.00" departLane="" departPos="0.00" departSpeed="16.37" departDelay="0.00" arrival="178.00" arrivalLane="" arrivalPos="114.91" arrivalSpeed="16.37" duration="137.00" routeLength="2154.38" waitingTime="0.00" waitingCount="0" stopTime="0.00" timeLoss="4.49" rerouteNo="0" devices="tripinfo_32" vType="DEFAULT_VEHTYPE" speedFactor="1.18" vaporized=""/>
    <tripinfo id="99" depart="103.00" departLane="" departPos="0.00" departSpeed="12.59" departDelay="0.00" arrival="180.00" arrivalLane="" arrivalPos="128.61" arrivalSpeed="12.59" duration="77.00" routeLength="967.07" waitingTime="0.00" waitingCount="0" stopTime="0.00" timeLoss="0.00" rerouteNo="0" devices="tripinfo_99" vType="DEFAULT_VEHTYPE" speedFactor="0.91" vaporized=""/>
    <tripinfo id="77" depart="82.00" departLane="" departPos="0.00" departSpeed="13.68" departDelay="0.00" arrival="181.00" arrivalLane="" arrivalPos="136.94" arrivalSpeed="13.68" duration="99.00" routeLength="1343.78" waitingTime="0.00" waitingCount="0" stopTime="0.00" timeLoss="0.00" rerouteNo="0" devices="tripinfo_77" vType="DEFAULT_VEHTYPE" speedFactor="0.98" vaporized=""/>
    <tripinfo id="25" depart="31.00" departLane="" departPos="0.00" departSpeed="12.36" departDelay="0.00" arrival="184.00" arrivalLane="" arrivalPos="136.99" arrivalSpeed="12.36" duration="153.00" routeLength="1885.41" waitingTime="0.00" waitingCount="0" stopTime="0.00" timeLoss="0.00" rerouteNo="0" devices="tripinfo_25" vType="DEFAULT_VEHTYPE" speedFactor="0.89" vaporized=""/>
    <tripinfo id="72" depart="79.00" departLane="" departPos="0.00" departSpeed="14.21" departDelay="0.00" arrival="184.00" arrivalLane="" arrivalPos="215.42" arrivalSpeed="14.21" duration="105.00" routeLength="1480.09" waitingTime="0.50" waitingCount="0" stopTime="0.00" timeLoss="0.67" rerouteNo="0" devices="tripinfo_72" vType="DEFAULT_VEHTYPE" speedFactor="1.02" vaporized=""/>
    <tripinfo id="51" depart="54.00" departLane="" departPos="0.00" departSpeed="11.81" departDelay="0.00" arrival="185.00" arrivalLane="" arrivalPos="210.33" arrivalSpeed="11.81" duration="131.00" routeLength="1535.83" waitingTime="0.00" waitingCount="0" stopTime="0.00" timeLoss="0.00" rerouteNo="0" devices="tripinfo_51" vType="DEFAULT_VEHTYPE" speedFactor="0.85" vaporized=""/>
    <tripinfo id="57" depart="61.00" departLane="" departPos="0.00" departSpeed="13.83" departDelay="0.00" arrival="185.00" arrivalLane="" arrivalPos="206.52" arrivalSpeed="13.83" duration="124.00" routeLength="1698.82" waitingTime="1.19" waitingCount="0" stopTime="0.00" timeLoss="1.19" rerouteNo="0" devices="tripinfo_57" vType="DEFAULT_VEHTYPE" speedFactor="1.00" vaporized=""/>
    <tripinfo id="60" depart="66.00" departLane="" departPos="0.00" departSpeed="14.22" departDelay="0.00" arrival="185.00" arrivalLane="" arrivalPos="101.06" arrivalSpeed="14.22" duration="119.00" routeLength="1681.19" waitingTime="0.00" waitingCount="0" stopTime="0.00" timeLoss="0.00" rerouteNo="0" devices="tripinfo_60" vType="DEFAULT_VEHTYPE" speedFactor="1.02" vaporized=""/>
    <tripinfo id="85" depart="87.00" departLane="" departPos="0.00" departSpeed="13.43" departDelay="0.00" arrival="185.00" arrivalLane="" arrivalPos="141.57" arrivalSpeed="13.43" duration="98.00" routeLength="1305.62" waitingTime="0.46" waitingCount="0" stopTime="0.00" timeLoss="0.46" rerouteNo="0" devices="tripinfo_85" vType="DEFAULT_VEHTYPE" speedFactor="0.97" vaporized=""/>
    <tripinfo id="3" depart="0.00" departLane="" departPos="0.00" departSpeed="13.03" departDelay="0.00" arrival="187.00" arrivalLane="" arrivalPos="198.52" arrivalSpeed="13.03" duration="187.00" routeLength="2422.80" waitingTime="0.49" waitingCount="0" stopTime="0.00" timeLoss="0.49" rerouteNo="0" devices="tripinfo_3" vType="DEFAULT_VEHTYPE" speedFactor="0.94" vaporized=""/>
    <tripinfo id="10" depart="7.00" departLane="" departPos="0.00" departSpeed="13.03" departDelay="0.00" arrival="187.00" arrivalLane="" arrivalPos="136.31" arrivalSpeed="13.03" duration="180.00" routeLength="2250.16" waitingTime="2.96" waitingCount="0" stopTime="0.00" timeLoss="6.71" rerouteNo="0" devices="tripinfo_10" vType="DEFAULT_VEHTYPE" speedFactor="0.94" vaporized=""/>
    <tripinfo id="126" depart="124.00" departLane="" departPos="0.00" departSpeed="14.74" departDelay="0.00" arrival="190.00" arrivalLane="" arrivalPos="142.47" arrivalSpeed="14.74" duration="66.00" routeLength="959.27" waitingTime="0.00" waitingCount="0" stopTime="0.00" timeLoss="0.00" rerouteNo="0" devices="tripinfo_126" vType="DEFAULT_VEHTYPE" speedFactor="1.06" vaporized=""/>
    <tripinfo id="42" depart="49.00" departLane="" departPos="0.00" departSpeed="14.31" departDelay="0.00" arrival="191.00" arrivalLane="" arrivalPos="215.42" arrivalSpeed="14.31" duration="142.00" routeLength="2027.16" waitingTime="0.00" waitingCount="0" stopTime="0.00" timeLoss="0.00" rerouteNo="0" devices="tripinfo_42" vType="DEFAULT_VEHTYPE" speedFactor="1.03" vaporized=""/>
    <tripinfo id="46" depart="51.00" departLane="" departPos="0.00" departSpeed="14.49" departDelay="0.00" arrival="193.00" arrivalLane="" arrivalPos="221.80" arrivalSpeed="14.49" duration="142.00" routeLength="1954.26" waitingTime="0.00" waitingCount="0" stopTime="0.00" timeLoss="6.28" rerouteNo="0" devices="tripinfo_46" vType="DEFAULT_VEHTYPE" speedFactor="1.04" vaporized=""/>
    <tripinfo id="157" depart="156.00" departLane="" departPos="0.00" departSpeed="15.61" departDelay="0.00" arrival="193.00" arrivalLane="" arrivalPos="79.10" arrivalSpeed="15.61" duration="37.00" routeLength="575.08" waitingTime="0.00" waitingCount="0" stopTime="0.00" timeLoss="0.00" rerouteNo="0" devices="tripinfo_157" vType="DEFAULT_VEHTYPE" speedFactor="1.12" vaporized=""/>
    <tripinfo id="115" depart="116.00" departLane="" departPos="0.00" departSpeed="14.01" departDelay="0.00" arrival="194.00" arrivalLane="" arrivalPos="149.71" arrivalSpeed="14.02" duration="78.00" routeLength="1085.18" waitingTime="0.00" waitingCount="0" stopTime="0.00" timeLoss="0.00" rerouteNo="0" devices="tripinfo_115" vType="DEFAULT_VEHTYPE" speedFactor="1.01" vaporized=""/>
    <tripinfo id="120" depart="118.00" departLane="" departPos="0.00" departSpeed="13.77" departDelay="0.00" arrival="194.00" arrivalLane="" arrivalPos="151.73" arrivalSpeed="13.77" duration="76.00" routeLength="1041.95" waitingTime="0.00" waitingCount="0" stopTime="0.00" timeLoss="0.00" rerouteNo="0" devices="tripinfo_120" vType="DEFAULT_VEHTYPE" speedFactor="0.99" vaporized=""/>