<?xml version="1.0" encoding="UTF-8"?>

<!-- generated on 2023-04-29 15:28:34 by Eclipse SUMO sumo Version 1.16.0
<configuration xmlns:xsi="http://www.w3.org/2001/XMLSchema-instance" xsi:noNamespaceSchemaLocation="http://sumo.dlr.de/xsd/sumoConfiguration.xsd">

    <input>
        <net-file value="C:\Users\Local_Man\Desktop\Stolen%20Music\school%20stuff%20for%20college\Semester%2015%20(UH%20Graduate%20School)\COSC%206364%20Nikolaos\SUMO_Project\COSC6364_Project\configurations\maps\4corners_neighborhoods.net.xml"/>
        <route-files value="./configurations/Rounds/4corners_neighborhoods.net.xml-test-1/Macroscopic_DUE/012/Trips_File_012.rou.xml"/>
    </input>

    <output>
        <summary-output value="./configurations/Rounds/4corners_neighborhoods.net.xml-test-1/Macroscopic_DUE/012/summary.xml"/>
        <tripinfo-output value="./configurations/Rounds/4corners_neighborhoods.net.xml-test-1/Macroscopic_DUE/012/trips.trips.xml"/>
        <statistic-output value="./configurations/Rounds/4corners_neighborhoods.net.xml-test-1/Macroscopic_DUE/012/stats_output.xml"/>
    </output>

    <time>
        <begin value="0"/>
    </time>

    <report>
        <log value="./configurations/Rounds/4corners_neighborhoods.net.xml-test-1/Macroscopic_DUE/012/log.sumo.log"/>
        <no-step-log value="true"/>
    </report>

    <gui_only>
        <quit-on-end value="true"/>
    </gui_only>

</configuration>
-->

<tripinfos xmlns:xsi="http://www.w3.org/2001/XMLSchema-instance" xsi:noNamespaceSchemaLocation="http://sumo.dlr.de/xsd/tripinfo_file.xsd">
    <tripinfo id="9" depart="9.00" departLane="318908683#0_0" departPos="5.10" departSpeed="15.15" departDelay="0.00" arrival="74.00" arrivalLane="422688976#1_1" arrivalPos="294.40" arrivalSpeed="29.62" duration="65.00" routeLength="940.85" waitingTime="21.00" waitingCount="1" stopTime="0.00" timeLoss="30.60" rerouteNo="0" devices="tripinfo_9" vType="DEFAULT_VEHTYPE" speedFactor="1.09" vaporized=""/>
    <tripinfo id="12" depart="14.00" departLane="318908683#0_0" departPos="5.10" departSpeed="12.51" departDelay="0.00" arrival="81.00" arrivalLane="422688976#1_1" arrivalPos="294.40" arrivalSpeed="24.40" duration="67.00" routeLength="940.85" waitingTime="16.00" waitingCount="1" stopTime="0.00" timeLoss="26.13" rerouteNo="0" devices="tripinfo_12" vType="DEFAULT_VEHTYPE" speedFactor="0.90" vaporized=""/>
    <tripinfo id="26" depart="28.00" departLane="318908683#0_0" departPos="5.10" departSpeed="9.16" departDelay="1.00" arrival="83.00" arrivalLane="918280984_0" arrivalPos="38.78" arrivalSpeed="15.76" duration="55.00" routeLength="693.58" waitingTime="7.00" waitingCount="2" stopTime="0.00" timeLoss="28.52" rerouteNo="0" devices="tripinfo_26" vType="DEFAULT_VEHTYPE" speedFactor="1.15" vaporized=""/>
    <tripinfo id="25" depart="27.00" departLane="318908683#0_0" departPos="5.10" departSpeed="12.42" departDelay="0.00" arrival="85.00" arrivalLane="260998164#0_0" arrivalPos="257.55" arrivalSpeed="24.02" duration="58.00" routeLength="939.98" waitingTime="5.00" waitingCount="1" stopTime="0.00" timeLoss="15.69" rerouteNo="0" devices="tripinfo_25" vType="DEFAULT_VEHTYPE" speedFactor="0.89" vaporized=""/>
    <tripinfo id="13" depart="17.00" departLane="-260998164#3_0" departPos="5.10" departSpeed="25.75" departDelay="0.00" arrival="89.00" arrivalLane="918280984_0" arrivalPos="38.78" arrivalSpeed="12.36" duration="72.00" routeLength="1455.19" waitingTime="0.00" waitingCount="0" stopTime="0.00" timeLoss="10.63" rerouteNo="0" devices="tripinfo_13" vType="DEFAULT_VEHTYPE" speedFactor="0.93" vaporized=""/>
    <tripinfo id="7" depart="7.00" departLane="597602753#0_0" departPos="5.10" departSpeed="20.84" departDelay="0.00" arrival="94.00" arrivalLane="-597602756#0_0" arrivalPos="325.99" arrivalSpeed="20.13" duration="87.00" routeLength="1646.04" waitingTime="0.00" waitingCount="0" stopTime="0.00" timeLoss="6.11" rerouteNo="0" devices="tripinfo_7" vType="DEFAULT_VEHTYPE" speedFactor="0.94" vaporized=""/>
    <tripinfo id="29" depart="30.00" departLane="-260998164#3_0" departPos="5.10" departSpeed="28.33" departDelay="0.00" arrival="96.00" arrivalLane="918280984_0" arrivalPos="38.78" arrivalSpeed="13.25" duration="66.00" routeLength="1455.19" waitingTime="0.00" waitingCount="0" stopTime="0.00" timeLoss="10.44" rerouteNo="0" devices="tripinfo_29" vType="DEFAULT_VEHTYPE" speedFactor="1.02" vaporized=""/>
    <tripinfo id="27" depart="29.00" departLane="597602753#0_0" departPos="5.10" departSpeed="21.52" departDelay="0.00" arrival="104.00" arrivalLane="-105681660#20_0" arrivalPos="806.12" arrivalSpeed="21.01" duration="75.00" routeLength="1387.70" waitingTime="0.00" waitingCount="0" stopTime="0.00" timeLoss="9.50" rerouteNo="0" devices="tripinfo_27" vType="DEFAULT_VEHTYPE" speedFactor="0.97" vaporized=""/>
    <tripinfo id="34" depart="33.00" departLane="-260998164#3_0" departPos="5.10" departSpeed="28.15" departDelay="0.00" arrival="104.00" arrivalLane="15374898#0-AddedOffRampEdge_1" arrivalPos="100.00" arrivalSpeed="29.05" duration="71.00" routeLength="1332.80" waitingTime="10.00" waitingCount="1" stopTime="0.00" timeLoss="25.10" rerouteNo="0" devices="tripinfo_34" vType="DEFAULT_VEHTYPE" speedFactor="1.07" vaporized=""/>
    <tripinfo id="11" depart="13.00" departLane="918280985_0" departPos="5.10" departSpeed="13.00" departDelay="0.00" arrival="105.00" arrivalLane="260998164#0_0" arrivalPos="257.55" arrivalSpeed="31.06" duration="92.00" routeLength="1460.33" waitingTime="21.00" waitingCount="1" stopTime="0.00" timeLoss="42.28" rerouteNo="0" devices="tripinfo_11" vType="DEFAULT_VEHTYPE" speedFactor="1.12" vaporized=""/>
    <tripinfo id="38" depart="37.00" departLane="-260998164#3_0" departPos="5.10" departSpeed="28.36" departDelay="0.00" arrival="106.00" arrivalLane="15374898#0-AddedOffRampEdge_1" arrivalPos="100.00" arrivalSpeed="28.05" duration="69.00" routeLength="1332.80" waitingTime="8.00" waitingCount="1" stopTime="0.00" timeLoss="21.30" rerouteNo="0" devices="tripinfo_38" vType="DEFAULT_VEHTYPE" speedFactor="1.02" vaporized=""/>
    <tripinfo id="4" depart="4.00" departLane="597602756#0_0" departPos="5.10" departSpeed="23.24" departDelay="1.00" arrival="107.00" arrivalLane="15374898#0-AddedOffRampEdge_1" arrivalPos="100.00" arrivalSpeed="28.25" duration="103.00" routeLength="1760.61" waitingTime="1.00" waitingCount="1" stopTime="0.00" timeLoss="21.62" rerouteNo="0" devices="tripinfo_4" vType="DEFAULT_VEHTYPE" speedFactor="1.05" vaporized=""/>
    <tripinfo id="3" depart="3.00" departLane="597602756#0_0" departPos="5.10" departSpeed="26.67" departDelay="0.00" arrival="110.00" arrivalLane="-318908683#1_0" arrivalPos="71.22" arrivalSpeed="15.84" duration="107.00" routeLength="1382.88" waitingTime="25.00" waitingCount="1" stopTime="0.00" timeLoss="43.20" rerouteNo="0" devices="tripinfo_3" vType="DEFAULT_VEHTYPE" speedFactor="1.20" vaporized=""/>
    <tripinfo id="35" depart="34.00" departLane="918280985_0" departPos="5.10" departSpeed="7.00" departDelay="0.00" arrival="110.00" arrivalLane="260998164#0_0" arrivalPos="257.55" arrivalSpeed="28.17" duration="76.00" routeLength="1460.33" waitingTime="4.00" waitingCount="1" stopTime="0.00" timeLoss="21.27" rerouteNo="0" devices="tripinfo_35" vType="DEFAULT_VEHTYPE" speedFactor="1.04" vaporized=""/>
    <tripinfo id="10" depart="10.00" departLane="597602756#0_0" departPos="5.10" departSpeed="20.50" departDelay="0.00" arrival="112.00" arrivalLane="15374898#0-AddedOffRampEdge_1" arrivalPos="100.00" arrivalSpeed="25.14" duration="102.00" routeLength="1760.61" waitingTime="0.00" waitingCount="0" stopTime="0.00" timeLoss="10.01" rerouteNo="0" devices="tripinfo_10" vType="DEFAULT_VEHTYPE" speedFactor="0.92" vaporized=""/>
    <tripinfo id="28" depart="29.00" departLane="105681660#12_0" departPos="5.10" departSpeed="22.10" departDelay="0.00" arrival="112.00" arrivalLane="-597602753#1_0" arrivalPos="143.59" arrivalSpeed="21.11" duration="83.00" routeLength="1380.56" waitingTime="6.00" waitingCount="1" stopTime="0.00" timeLoss="18.40" rerouteNo="0" devices="tripinfo_28" vType="DEFAULT_VEHTYPE" speedFactor="0.99" vaporized=""/>
    <tripinfo id="23" depart="27.00" departLane="422688973_2" departPos="5.10" departSpeed="0.24" departDelay="0.00" arrival="117.00" arrivalLane="15374898#0-AddedOffRampEdge_1" arrivalPos="100.00" arrivalSpeed="30.80" duration="90.00" routeLength="1006.54" waitingTime="28.00" waitingCount="2" stopTime="0.00" timeLoss="56.52" rerouteNo="0" devices="tripinfo_23" vType="DEFAULT_VEHTYPE" speedFactor="1.12" vaporized=""/>
    <tripinfo id="48" depart="48.00" departLane="105681660#12_0" departPos="5.10" departSpeed="22.15" departDelay="0.00" arrival="117.00" arrivalLane="-597602753#1_0" arrivalPos="143.59" arrivalSpeed="21.98" duration="69.00" routeLength="1380.56" waitingTime="0.00" waitingCount="0" stopTime="0.00" timeLoss="5.81" rerouteNo="0" devices="tripinfo_48" vType="DEFAULT_VEHTYPE" speedFactor="1.00" vaporized=""/>
    <tripinfo id="49" depart="49.00" departLane="105681660#12_0" departPos="5.10" departSpeed="20.04" departDelay="1.00" arrival="119.00" arrivalLane="-597602753#1_0" arrivalPos="143.59" arrivalSpeed="23.86" duration="70.00" routeLength="1380.56" waitingTime="0.00" waitingCount="0" stopTime="0.00" timeLoss="13.16" rerouteNo="0" devices="tripinfo_49" vType="DEFAULT_VEHTYPE" speedFactor="1.12" vaporized=""/>
    <tripinfo id="43" depart="44.00" departLane="422685671#2_0" departPos="5.10" departSpeed="27.87" departDelay="0.00" arrival="120.00" arrivalLane="260998164#0_0" arrivalPos="257.55" arrivalSpeed="27.21" duration="76.00" routeLength="1329.43" waitingTime="15.00" waitingCount="1" stopTime="0.00" timeLoss="27.98" rerouteNo="0" devices="tripinfo_43" vType="DEFAULT_VEHTYPE" speedFactor="1.00" vaporized=""/>
    <tripinfo id="2" depart="1.00" departLane="918280985_0" departPos="5.10" departSpeed="13.55" departDelay="0.00" arrival="121.00" arrivalLane="-105681660#20_0" arrivalPos="806.12" arrivalSpeed="21.01" duration="120.00" routeLength="1360.98" waitingTime="31.00" waitingCount="1" stopTime="0.00" timeLoss="41.81" rerouteNo="0" devices="tripinfo_2" vType="DEFAULT_VEHTYPE" speedFactor="0.98" vaporized=""/>
    <tripinfo id="41" depart="43.00" departLane="318908683#0_0" departPos="5.10" departSpeed="14.05" departDelay="0.00" arrival="128.00" arrivalLane="-597602756#0_0" arrivalPos="325.99" arrivalSpeed="25.25" duration="85.00" routeLength="1371.20" waitingTime="1.00" waitingCount="1" stopTime="0.00" timeLoss="20.76" rerouteNo="0" devices="tripinfo_41" vType="DEFAULT_VEHTYPE" speedFactor="1.17" vaporized=""/>
    <tripinfo id="24" depart="27.00" departLane="105681660#12_0" departPos="5.10" departSpeed="25.14" departDelay="0.00" arrival="129.00" arrivalLane="918280984_0" arrivalPos="38.78" arrivalSpeed="15.12" duration="102.00" routeLength="1405.13" waitingTime="9.00" waitingCount="1" stopTime="0.00" timeLoss="30.51" rerouteNo="0" devices="tripinfo_24" vType="DEFAULT_VEHTYPE" speedFactor="1.13" vaporized=""/>
    <tripinfo id="19" depart="25.00" departLane="105681660#12_0" departPos="5.10" departSpeed="22.86" departDelay="0.00" arrival="137.00" arrivalLane="422688976#1_0" arrivalPos="294.40" arrivalSpeed="28.57" duration="112.00" routeLength="1630.66" waitingTime="11.00" waitingCount="1" stopTime="0.00" timeLoss="27.11" rerouteNo="0" devices="tripinfo_19" vType="DEFAULT_VEHTYPE" speedFactor="1.03" vaporized=""/>
    <tripinfo id="55" depart="58.00" departLane="597602756#0_0" departPos="5.10" departSpeed="23.46" departDelay="0.00" arrival="140.00" arrivalLane="-597602753#1_0" arrivalPos="143.59" arrivalSpeed="22.68" duration="82.00" routeLength="1638.96" waitingTime="0.00" waitingCount="0" stopTime="0.00" timeLoss="10.77" rerouteNo="0" devices="tripinfo_55" vType="DEFAULT_VEHTYPE" speedFactor="1.06" vaporized=""/>
    <tripinfo id="8" depart="7.00" departLane="918280985_0" departPos="5.10" departSpeed="14.13" departDelay="0.00" arrival="144.00" arrivalLane="-597602756#0_0" arrivalPos="325.99" arrivalSpeed="21.79" duration="137.00" routeLength="1890.39" waitingTime="25.00" waitingCount="1" stopTime="0.00" timeLoss="52.64" rerouteNo="0" devices="tripinfo_8" vType="DEFAULT_VEHTYPE" speedFactor="1.02" vaporized=""/>
    <tripinfo id="32" depart="31.00" departLane="318908683#0_0" departPos="5.10" departSpeed="11.60" departDelay="0.00" arrival="144.00" arrivalLane="-105681660#20_0" arrivalPos="806.12" arrivalSpeed="18.00" duration="113.00" routeLength="1436.85" waitingTime="8.00" waitingCount="2" stopTime="0.00" timeLoss="31.85" rerouteNo="0" devices="tripinfo_32" vType="DEFAULT_VEHTYPE" speedFactor="0.83" vaporized=""/>
    <tripinfo id="33" depart="31.00" departLane="918280985_0" departPos="5.10" departSpeed="10.50" departDelay="0.00" arrival="145.00" arrivalLane="-318908683#1_0" arrivalPos="71.22" arrivalSpeed="13.04" duration="114.00" routeLength="674.50" waitingTime="64.00" waitingCount="2" stopTime="0.00" timeLoss="85.32" rerouteNo="0" devices="tripinfo_33" vType="DEFAULT_VEHTYPE" speedFactor="1.03" vaporized=""/>
    <tripinfo id="16" depart="21.00" departLane="422688973_0" departPos="5.10" departSpeed="15.75" departDelay="0.00" arrival="147.00" arrivalLane="-318908683#1_0" arrivalPos="71.22" arrivalSpeed="14.85" duration="126.00" routeLength="684.23" waitingTime="78.00" waitingCount="2" stopTime="0.00" timeLoss="99.93" rerouteNo="0" devices="tripinfo_16" vType="DEFAULT_VEHTYPE" speedFactor="1.08" vaporized=""/>
    <tripinfo id="51" depart="49.00" departLane="422688973_1" departPos="5.10" departSpeed="13.62" departDelay="0.00" arrival="150.00" arrivalLane="-318908683#1_0" arrivalPos="71.22" arrivalSpeed="12.98" duration="101.00" routeLength="684.23" waitingTime="50.00" waitingCount="2" stopTime="0.00" timeLoss="72.23" rerouteNo="0" devices="tripinfo_51" vType="DEFAULT_VEHTYPE" speedFactor="1.00" vaporized=""/>
    <tripinfo id="58" depart="59.00" departLane="597602753#0_0" departPos="5.10" departSpeed="24.84" departDelay="0.00" arrival="150.00" arrivalLane="-597602756#0_0" arrivalPos="325.99" arrivalSpeed="24.50" duration="91.00" routeLength="1646.04" waitingTime="6.00" waitingCount="1" stopTime="0.00" timeLoss="22.59" rerouteNo="0" devices="tripinfo_58" vType="DEFAULT_VEHTYPE" speedFactor="1.12" vaporized=""/>
    <tripinfo id="6" depart="6.00" departLane="105681660#12_0" departPos="5.10" departSpeed="23.95" departDelay="0.00" arrival="151.00" arrivalLane="-318908683#1_0" arrivalPos="71.22" arrivalSpeed="14.00" duration="145.00" routeLength="1986.24" waitingTime="12.00" waitingCount="4" stopTime="0.00" timeLoss="48.81" rerouteNo="0" devices="tripinfo_6" vType="DEFAULT_VEHTYPE" speedFactor="1.08" vaporized=""/>
    <tripinfo id="45" depart="45.00" departLane="597602756#0_0" departPos="5.10" departSpeed="19.97" departDelay="0.00" arrival="153.00" arrivalLane="-105681660#20_0" arrivalPos="806.12" arrivalSpeed="18.81" duration="108.00" routeLength="1867.67" waitingTime="0.00" waitingCount="0" stopTime="0.00" timeLoss="12.46" rerouteNo="0" devices="tripinfo_45" vType="DEFAULT_VEHTYPE" speedFactor="0.90" vaporized=""/>
    <tripinfo id="79" depart="81.00" departLane="918280985_0" departPos="5.10" departSpeed="0.48" departDelay="0.00" arrival="153.00" arrivalLane="-318908683#1_0" arrivalPos="71.22" arrivalSpeed="13.89" duration="72.00" routeLength="674.50" waitingTime="16.00" waitingCount="2" stopTime="0.00" timeLoss="43.68" rerouteNo="0" devices="tripinfo_79" vType="DEFAULT_VEHTYPE" speedFactor="1.07" vaporized=""/>
    <tripinfo id="50" depart="49.00" departLane="597602756#0_0" departPos="5.10" departSpeed="21.93" departDelay="0.00" arrival="154.00" arrivalLane="-105681660#20_0" arrivalPos="806.12" arrivalSpeed="21.53" duration="105.00" routeLength="1867.67" waitingTime="0.00" waitingCount="0" stopTime="0.00" timeLoss="17.64" rerouteNo="0" devices="tripinfo_50" vType="DEFAULT_VEHTYPE" speedFactor="0.99" vaporized=""/>
    <tripinfo id="70" depart="72.00" departLane="597602753#0_0" departPos="5.10" departSpeed="23.38" departDelay="0.00" arrival="155.00" arrivalLane="-597602756#0_0" arrivalPos="325.99" arrivalSpeed="23.36" duration="83.00" routeLength="1646.04" waitingTime="0.00" waitingCount="0" stopTime="0.00" timeLoss="11.03" rerouteNo="0" devices="tripinfo_70" vType="DEFAULT_VEHTYPE" speedFactor="1.05" vaporized=""/>
    <tripinfo id="80" depart="102.00" departLane="918280985_0" departPos="5.10" departSpeed="1.47" departDelay="21.00" arrival="155.00" arrivalLane="15374898#0-AddedOffRampEdge_0" arrivalPos="100.00" arrivalSpeed="28.60" duration="53.00" routeLength="996.81" waitingTime="0.00" waitingCount="0" stopTime="0.00" timeLoss="17.07" rerouteNo="0" devices="tripinfo_80" vType="DEFAULT_VEHTYPE" speedFactor="1.08" vaporized=""/>
    <tripinfo id="81" depart="105.00" departLane="918280985_0" departPos="5.10" departSpeed="3.67" departDelay="23.00" arrival="159.00" arrivalLane="15374898#0-AddedOffRampEdge_0" arrivalPos="100.00" arrivalSpeed="28.79" duration="54.00" routeLength="996.81" waitingTime="0.00" waitingCount="0" stopTime="0.00" timeLoss="16.71" rerouteNo="0" devices="tripinfo_81" vType="DEFAULT_VEHTYPE" speedFactor="1.06" vaporized=""/>
    <tripinfo id="42" depart="44.00" departLane="318908683#0_0" departPos="5.10" departSpeed="10.97" departDelay="0.00" arrival="162.00" arrivalLane="422688976#1_0" arrivalPos="294.40" arrivalSpeed="28.32" duration="118.00" routeLength="940.85" waitingTime="65.00" waitingCount="1" stopTime="0.00" timeLoss="83.03" rerouteNo="0" devices="tripinfo_42" vType="DEFAULT_VEHTYPE" speedFactor="1.05" vaporized=""/>
    <tripinfo id="44" depart="45.00" departLane="-260998164#3_0" departPos="5.10" departSpeed="30.58" departDelay="0.00" arrival="163.00" arrivalLane="422688976#1_1" arrivalPos="294.40" arrivalSpeed="29.88" duration="118.00" routeLength="1702.46" waitingTime="40.00" waitingCount="1" stopTime="0.00" timeLoss="61.05" rerouteNo="0" devices="tripinfo_44" vType="DEFAULT_VEHTYPE" speedFactor="1.10" vaporized=""/>
    <tripinfo id="22" depart="26.00" departLane="-260998164#3_0" departPos="5.10" departSpeed="24.24" departDelay="0.00" arrival="165.00" arrivalLane="422688976#1_1" arrivalPos="294.40" arrivalSpeed="24.13" duration="139.00" routeLength="1712.42" waitingTime="46.00" waitingCount="2" stopTime="0.00" timeLoss="67.08" rerouteNo="0" devices="tripinfo_22" vType="DEFAULT_VEHTYPE" speedFactor="0.87" vaporized=""/>
    <tripinfo id="118" depart="121.00" departLane="918280985_0" departPos="5.10" departSpeed="4.75" departDelay="5.00" arrival="165.00" arrivalLane="-318908683#1_0" arrivalPos="71.22" arrivalSpeed="11.56" duration="44.00" routeLength="674.50" waitingTime="0.00" waitingCount="0" stopTime="0.00" timeLoss="10.90" rerouteNo="0" devices="tripinfo_118" vType="DEFAULT_VEHTYPE" speedFactor="0.92" vaporized=""/>
    <tripinfo id="5" depart="3.00" departLane="-260998164#3_0" departPos="5.10" departSpeed="30.08" departDelay="0.00" arrival="166.00" arrivalLane="422688976#1_0" arrivalPos="294.40" arrivalSpeed="25.49" duration="163.00" routeLength="1712.42" waitingTime="81.00" waitingCount="2" stopTime="0.00" timeLoss="104.93" rerouteNo="0" devices="tripinfo_5" vType="DEFAULT_VEHTYPE" speedFactor="1.08" vaporized=""/>
    <tripinfo id="36" depart="35.00" departLane="422688973_2" departPos="5.10" departSpeed="15.75" departDelay="0.00" arrival="166.00" arrivalLane="-105681660#20_0" arrivalPos="806.12" arrivalSpeed="18.77" duration="131.00" routeLength="1352.23" waitingTime="36.00" waitingCount="1" stopTime="0.00" timeLoss="47.43" rerouteNo="0" devices="tripinfo_36" vType="DEFAULT_VEHTYPE" speedFactor="0.90" vaporized=""/>
    <tripinfo id="40" depart="41.00" departLane="422685671#2_0" departPos="5.10" departSpeed="29.55" departDelay="0.00" arrival="167.00" arrivalLane="422688976#1_1" arrivalPos="294.40" arrivalSpeed="27.51" duration="126.00" routeLength="1317.05" waitingTime="48.00" waitingCount="2" stopTime="0.00" timeLoss="79.30" rerouteNo="0" devices="tripinfo_40" vType="DEFAULT_VEHTYPE" speedFactor="1.06" vaporized=""/>
    <tripinfo id="69" depart="69.00" departLane="422688973_0" departPos="5.10" departSpeed="0.00" departDelay="0.00" arrival="168.00" arrivalLane="-597602753#1_0" arrivalPos="143.59" arrivalSpeed="17.29" duration="99.00" routeLength="1114.81" waitingTime="0.00" waitingCount="0" stopTime="0.00" timeLoss="19.71" rerouteNo="0" devices="tripinfo_69" vType="DEFAULT_VEHTYPE" speedFactor="0.83" vaporized=""/>
    <tripinfo id="30" depart="30.00" departLane="422685671#2_0" departPos="5.10" departSpeed="30.62" departDelay="0.00" arrival="169.00" arrivalLane="422688976#1_1" arrivalPos="294.40" arrivalSpeed="30.01" duration="139.00" routeLength="1317.05" waitingTime="64.00" waitingCount="2" stopTime="0.00" timeLoss="93.44" rerouteNo="0" devices="tripinfo_30" vType="DEFAULT_VEHTYPE" speedFactor="1.10" vaporized=""/>
    <tripinfo id="39" depart="37.00" departLane="422688973_1" departPos="5.10" departSpeed="13.62" departDelay="0.00" arrival="171.00" arrivalLane="-105681660#20_0" arrivalPos="806.12" arrivalSpeed="19.46" duration="134.00" routeLength="1352.23" waitingTime="33.00" waitingCount="1" stopTime="0.00" timeLoss="47.89" rerouteNo="0" devices="tripinfo_39" vType="DEFAULT_VEHTYPE" speedFactor="0.88" vaporized=""/>
    <tripinfo id="73" depart="76.00" departLane="597602753#0_0" departPos="5.10" departSpeed="20.14" departDelay="0.00" arrival="171.00" arrivalLane="422688976#1_1" arrivalPos="294.40" arrivalSpeed="23.97" duration="95.00" routeLength="1788.22" waitingTime="0.00" waitingCount="0" stopTime="0.00" timeLoss="12.40" rerouteNo="0" devices="tripinfo_73" vType="DEFAULT_VEHTYPE" speedFactor="0.91" vaporized=""/>
    <tripinfo id="31" depart="31.00" departLane="-260998164#3_0" departPos="5.10" departSpeed="25.93" departDelay="1.00" arrival="172.00" arrivalLane="918280984_0" arrivalPos="38.78" arrivalSpeed="12.12" duration="141.00" routeLength="1465.15" waitingTime="62.00" waitingCount="2" stopTime="0.00" timeLoss="80.92" rerouteNo="0" devices="tripinfo_31" vType="DEFAULT_VEHTYPE" speedFactor="0.94" vaporized=""/>
    <tripinfo id="117" depart="119.00" departLane="918280985_0" departPos="5.10" departSpeed="5.45" departDelay="4.00" arrival="172.00" arrivalLane="15374898#0-AddedOffRampEdge_0" arrivalPos="100.00" arrivalSpeed="28.59" duration="53.00" routeLength="996.81" waitingTime="0.00" waitingCount="0" stopTime="0.00" timeLoss="16.49" rerouteNo="0" devices="tripinfo_117" vType="DEFAULT_VEHTYPE" speedFactor="1.07" vaporized=""/>
    <tripinfo id="95" depart="94.00" departLane="-260998164#3_0" departPos="5.10" departSpeed="28.43" departDelay="0.00" arrival="175.00" arrivalLane="-597602756#0_0" arrivalPos="325.99" arrivalSpeed="22.05" duration="81.00" routeLength="1231.40" waitingTime="0.00" waitingCount="0" stopTime="0.00" timeLoss="10.14" rerouteNo="0" devices="tripinfo_95" vType="DEFAULT_VEHTYPE" speedFactor="1.02" vaporized=""/>
    <tripinfo id="14" depart="20.00" departLane="422685671#2_0" departPos="5.10" departSpeed="28.95" departDelay="0.00" arrival="177.00" arrivalLane="-105681660#20_0" arrivalPos="806.12" arrivalSpeed="22.39" duration="157.00" routeLength="1813.05" waitingTime="59.00" waitingCount="1" stopTime="0.00" timeLoss="79.97" rerouteNo="0" devices="tripinfo_14" vType="DEFAULT_VEHTYPE" speedFactor="1.04" vaporized=""/>
    <tripinfo id="53" depart="55.00" departLane="318908683#0_0" departPos="5.10" departSpeed="12.60" departDelay="0.00" arrival="177.00" arrivalLane="260998164#0_0" arrivalPos="257.55" arrivalSpeed="23.91" duration="122.00" routeLength="939.98" waitingTime="71.00" waitingCount="1" stopTime="0.00" timeLoss="80.62" rerouteNo="0" devices="tripinfo_53" vType="DEFAULT_VEHTYPE" speedFactor="0.91" vaporized=""/>
    <tripinfo id="65" depart="63.00" departLane="105681660#12_0" departPos="5.10" departSpeed="22.60" departDelay="0.00" arrival="183.00" arrivalLane="-597602753#1_0" arrivalPos="143.59" arrivalSpeed="21.94" duration="120.00" routeLength="1380.56" waitingTime="36.00" waitingCount="3" stopTime="0.00" timeLoss="57.31" rerouteNo="0" devices="tripinfo_65" vType="DEFAULT_VEHTYPE" speedFactor="1.02" vaporized=""/>
    <tripinfo id="100" depart="98.00" departLane="597602756#0_0" departPos="5.10" departSpeed="24.51" departDelay="0.00" arrival="184.00" arrivalLane="260998164#0_0" arrivalPos="257.55" arrivalSpeed="30.22" duration="86.00" routeLength="1239.91" waitingTime="3.00" waitingCount="1" stopTime="0.00" timeLoss="19.19" rerouteNo="0" devices="tripinfo_100" vType="DEFAULT_VEHTYPE" speedFactor="1.10" vaporized=""/>
    <tripinfo id="15" depart="20.00" departLane="422685671#2_1" departPos="5.10" departSpeed="26.01" departDelay="0.00" arrival="186.00" arrivalLane="-105681660#20_0" arrivalPos="806.12" arrivalSpeed="19.55" duration="166.00" routeLength="1813.05" waitingTime="58.00" waitingCount="1" stopTime="0.00" timeLoss="80.18" rerouteNo="0" devices="tripinfo_15" vType="DEFAULT_VEHTYPE" speedFactor="0.94" vaporized=""/>
    <tripinfo id="17" depart="23.00" departLane="422685671#2_0" departPos="5.10" departSpeed="28.06" departDelay="0.00" arrival="187.00" arrivalLane="-105681660#20_0" arrivalPos="806.12" arrivalSpeed="22.22" duration="164.00" routeLength="1813.05" waitingTime="57.00" waitingCount="1" stopTime="0.00" timeLoss="83.46" rerouteNo="0" devices="tripinfo_17" vType="DEFAULT_VEHTYPE" speedFactor="1.01" vaporized=""/>
    <tripinfo id="52" depart="53.00" departLane="105681660#12_0" departPos="5.10" departSpeed="21.32" departDelay="0.00" arrival="189.00" arrivalLane="-597602756#0_0" arrivalPos="325.99" arrivalSpeed="20.23" duration="136.00" routeLength="1877.95" waitingTime="28.00" waitingCount="2" stopTime="0.00" timeLoss="45.23" rerouteNo="0" devices="tripinfo_52" vType="DEFAULT_VEHTYPE" speedFactor="0.96" vaporized=""/>
    <tripinfo id="56" depart="58.00" departLane="105681660#12_0" departPos="5.10" departSpeed="22.71" departDelay="0.00" arrival="192.00" arrivalLane="918280984_0" arrivalPos="38.78" arrivalSpeed="13.69" duration="134.00" routeLength="1405.13" waitingTime="32.00" waitingCount="3" stopTime="0.00" timeLoss="54.46" rerouteNo="0" devices="tripinfo_56" vType="DEFAULT_VEHTYPE" speedFactor="1.02" vaporized=""/>
    <tripinfo id="72" depart="76.00" departLane="318908683#0_0" departPos="5.10" departSpeed="11.96" departDelay="0.00" arrival="192.00" arrivalLane="260998164#0_0" arrivalPos="257.55" arrivalSpeed="23.63" duration="116.00" routeLength="939.98" waitingTime="57.00" waitingCount="1" stopTime="0.00" timeLoss="72.04" rerouteNo="0" devices="tripinfo_72" vType="DEFAULT_VEHTYPE" speedFactor="0.86" vaporized=""/>
    <tripinfo id="67" depart="67.00" departLane="918280985_0" departPos="5.10" departSpeed="12.91" departDelay="0.00" arrival="193.00" arrivalLane="-597602753#1_0" arrivalPos="143.59" arrivalSpeed="21.98" duration="126.00" routeLength="1123.56" waitingTime="36.00" waitingCount="3" stopTime="0.00" timeLoss="59.36" rerouteNo="0" devices="tripinfo_67" vType="DEFAULT_VEHTYPE" speedFactor="1.01" vaporized=""/>
    <tripinfo id="74" depart="77.00" departLane="318908683#0_0" departPos="5.10" departSpeed="9.08" departDelay="0.00" arrival="193.00" arrivalLane="260998164#0_0" arrivalPos="257.55" arrivalSpeed="25.23" duration="116.00" routeLength="939.98" waitingTime="57.00" waitingCount="1" stopTime="0.00" timeLoss="83.42" rerouteNo="0" devices="tripinfo_74" vType="DEFAULT_VEHTYPE" speedFactor="1.14" vaporized=""/>
    <tripinfo id="47" depart="47.00" departLane="422685671#2_1" departPos="5.10" departSpeed="28.44" departDelay="0.00" arrival="196.00" arrivalLane="-597602756#0_0" arrivalPos="325.99" arrivalSpeed="21.68" duration="149.00" routeLength="1778.05" waitingTime="41.00" waitingCount="1" stopTime="0.00" timeLoss="72.11" rerouteNo="0" devices="tripinfo_47" vType="DEFAULT_VEHTYPE" speedFactor="1.02" vaporized=""/>
    <tripinfo id="54" depart="55.00" departLane="918280985_0" departPos="5.10" departSpeed="13.16" departDelay="0.00" arrival="196.00" arrivalLane="-105681660#20_0" arrivalPos="806.12" arrivalSpeed="20.48" duration="141.00" routeLength="1360.98" waitingTime="43.00" waitingCount="2" stopTime="0.00" timeLoss="60.28" rerouteNo="0" devices="tripinfo_54" vType="DEFAULT_VEHTYPE" speedFactor="0.95" vaporized=""/>
    <tripinfo id="105" depart="104.00" departLane="422688973_2" departPos="5.10" departSpeed="2.12" departDelay="0.00" arrival="197.00" arrivalLane="15374898#0-AddedOffRampEdge_0" arrivalPos="100.00" arrivalSpeed="27.71" duration="93.00" routeLength="1006.54" waitingTime="34.00" waitingCount="1" stopTime="0.00" timeLoss="56.08" rerouteNo="0" devices="tripinfo_105" vType="DEFAULT_VEHTYPE" speedFactor="1.01" vaporized=""/>
    <tripinfo id="87" depart="85.00" departLane="422685671#2_0" departPos="5.10" departSpeed="30.46" departDelay="0.00" arrival="200.00" arrivalLane="-597602756#0_0" arrivalPos="325.99" arrivalSpeed="23.12" duration="115.00" routeLength="1778.05" waitingTime="10.00" waitingCount="1" stopTime="0.00" timeLoss="43.08" rerouteNo="0" devices="tripinfo_87" vType="DEFAULT_VEHTYPE" speedFactor="1.10" vaporized=""/>
    <tripinfo id="132" depart="131.00" departLane="422688973_2" departPos="5.10" departSpeed="2.12" departDelay="0.00" arrival="201.00" arrivalLane="15374898#0-AddedOffRampEdge_0" arrivalPos="100.00" arrivalSpeed="24.06" duration="70.00" routeLength="1006.54" waitingTime="9.00" waitingCount="1" stopTime="0.00" timeLoss="28.68" rerouteNo="0" devices="tripinfo_132" vType="DEFAULT_VEHTYPE" speedFactor="0.90" vaporized=""/>
    <tripinfo id="46" depart="46.00" departLane="422685671#2_1" departPos="5.10" departSpeed="26.72" departDelay="0.00" arrival="202.00" arrivalLane="-597602753#1_0" arrivalPos="143.59" arrivalSpeed="21.00" duration="156.00" routeLength="1584.34" waitingTime="51.00" waitingCount="2" stopTime="0.00" timeLoss="83.31" rerouteNo="0" devices="tripinfo_46" vType="DEFAULT_VEHTYPE" speedFactor="0.96" vaporized=""/>