<?xml version="1.0" encoding="UTF-8"?>

<!-- generated on 2023-04-04 16:33:10 by Eclipse SUMO sumo Version 1.16.0
<configuration xmlns:xsi="http://www.w3.org/2001/XMLSchema-instance" xsi:noNamespaceSchemaLocation="http://sumo.dlr.de/xsd/sumoConfiguration.xsd">

    <input>
        <net-file value="013/../configurations/maps/4corners_neighborhoods.net.xml"/>
        <route-files value="013/Trips_File_013.rou.xml"/>
        <additional-files value="013/../edgedata.add.xml"/>
    </input>

    <output>
        <output-prefix value="013/"/>
        <summary-output value="013/../summary_013.xml"/>
        <tripinfo-output value="013/../tripinfo_013.xml"/>
    </output>

    <time>
        <begin value="0"/>
    </time>

    <processing>
        <route-steps value="200"/>
        <no-internal-links value="False"/>
        <time-to-teleport value="300"/>
        <time-to-teleport.highways value="0"/>
        <eager-insert value="False"/>
    </processing>

    <report>
        <verbose value="true"/>
        <no-warnings value="False"/>
        <log value="013/../iteration_013.sumo.log"/>
        <no-step-log value="true"/>
    </report>

    <random_number>
        <random value="False"/>
    </random_number>

</configuration>
-->

<tripinfos xmlns:xsi="http://www.w3.org/2001/XMLSchema-instance" xsi:noNamespaceSchemaLocation="http://sumo.dlr.de/xsd/tripinfo_file.xsd">
    <tripinfo id="6" depart="9.00" departLane="318908683#0_0" departPos="5.10" departSpeed="0.00" departDelay="0.00" arrival="76.00" arrivalLane="918280984_0" arrivalPos="38.78" arrivalSpeed="13.64" duration="67.00" routeLength="693.58" waitingTime="18.00" waitingCount="1" stopTime="0.00" timeLoss="37.07" rerouteNo="0" devices="tripinfo_6" vType="DEFAULT_VEHTYPE" speedFactor="1.03" vaporized=""/>
    <tripinfo id="50" depart="49.00" departLane="318908683#0_0" departPos="5.10" departSpeed="0.00" departDelay="3.00" arrival="99.00" arrivalLane="260998164#0_0" arrivalPos="257.55" arrivalSpeed="23.50" duration="50.00" routeLength="939.98" waitingTime="0.00" waitingCount="0" stopTime="0.00" timeLoss="7.18" rerouteNo="0" devices="tripinfo_50" vType="DEFAULT_VEHTYPE" speedFactor="0.88" vaporized=""/>
    <tripinfo id="27" depart="25.00" departLane="422688973_0" departPos="5.10" departSpeed="0.00" departDelay="0.00" arrival="100.00" arrivalLane="15374898#0-AddedOffRampEdge_0" arrivalPos="100.00" arrivalSpeed="23.63" duration="75.00" routeLength="1006.54" waitingTime="16.00" waitingCount="1" stopTime="0.00" timeLoss="32.91" rerouteNo="0" devices="tripinfo_27" vType="DEFAULT_VEHTYPE" speedFactor="0.87" vaporized=""/>
    <tripinfo id="14" depart="15.00" departLane="597602753#0_0" departPos="5.10" departSpeed="0.00" departDelay="0.00" arrival="102.00" arrivalLane="918280984_0" arrivalPos="38.78" arrivalSpeed="14.34" duration="87.00" routeLength="1061.00" waitingTime="0.00" waitingCount="0" stopTime="0.00" timeLoss="17.96" rerouteNo="0" devices="tripinfo_14" vType="DEFAULT_VEHTYPE" speedFactor="1.05" vaporized=""/>
    <tripinfo id="34" depart="31.00" departLane="422688973_0" departPos="5.10" departSpeed="0.00" departDelay="0.00" arrival="102.00" arrivalLane="15374898#0-AddedOffRampEdge_0" arrivalPos="100.00" arrivalSpeed="26.45" duration="71.00" routeLength="1006.54" waitingTime="11.00" waitingCount="1" stopTime="0.00" timeLoss="33.92" rerouteNo="0" devices="tripinfo_34" vType="DEFAULT_VEHTYPE" speedFactor="1.01" vaporized=""/>
    <tripinfo id="54" depart="48.00" departLane="422688973_0" departPos="5.10" departSpeed="0.00" departDelay="0.00" arrival="105.00" arrivalLane="15374898#0-AddedOffRampEdge_0" arrivalPos="100.00" arrivalSpeed="27.39" duration="57.00" routeLength="1006.54" waitingTime="0.00" waitingCount="0" stopTime="0.00" timeLoss="20.08" rerouteNo="0" devices="tripinfo_54" vType="DEFAULT_VEHTYPE" speedFactor="1.02" vaporized=""/>
    <tripinfo id="17" depart="18.00" departLane="597602756#0_0" departPos="5.10" departSpeed="0.00" departDelay="2.00" arrival="114.00" arrivalLane="260998164#0_0" arrivalPos="257.55" arrivalSpeed="25.41" duration="96.00" routeLength="1239.91" waitingTime="0.00" waitingCount="0" stopTime="0.00" timeLoss="16.72" rerouteNo="0" devices="tripinfo_17" vType="DEFAULT_VEHTYPE" speedFactor="0.93" vaporized=""/>
    <tripinfo id="8" depart="11.00" departLane="422688973_0" departPos="5.10" departSpeed="0.00" departDelay="0.00" arrival="117.00" arrivalLane="-105681660#20_0" arrivalPos="806.12" arrivalSpeed="22.31" duration="106.00" routeLength="1352.23" waitingTime="14.00" waitingCount="1" stopTime="0.00" timeLoss="34.16" rerouteNo="0" devices="tripinfo_8" vType="DEFAULT_VEHTYPE" speedFactor="1.05" vaporized=""/>
    <tripinfo id="18" depart="18.00" departLane="-260998164#3_0" departPos="5.10" departSpeed="0.00" departDelay="0.00" arrival="121.00" arrivalLane="-318908683#1_0" arrivalPos="71.22" arrivalSpeed="11.75" duration="103.00" routeLength="955.07" waitingTime="47.00" waitingCount="1" stopTime="0.00" timeLoss="59.27" rerouteNo="0" devices="tripinfo_18" vType="DEFAULT_VEHTYPE" speedFactor="0.88" vaporized=""/>
    <tripinfo id="24" depart="22.00" departLane="105681660#12_0" departPos="5.10" departSpeed="0.00" departDelay="0.00" arrival="121.00" arrivalLane="-597602753#1_0" arrivalPos="143.59" arrivalSpeed="21.55" duration="99.00" routeLength="1380.56" waitingTime="11.00" waitingCount="2" stopTime="0.00" timeLoss="34.20" rerouteNo="0" devices="tripinfo_24" vType="DEFAULT_VEHTYPE" speedFactor="0.97" vaporized=""/>
    <tripinfo id="20" depart="18.00" departLane="422688973_0" departPos="5.10" departSpeed="0.00" departDelay="0.00" arrival="123.00" arrivalLane="-597602753#1_0" arrivalPos="143.59" arrivalSpeed="20.61" duration="105.00" routeLength="1114.81" waitingTime="15.00" waitingCount="2" stopTime="0.00" timeLoss="34.34" rerouteNo="0" devices="tripinfo_20" vType="DEFAULT_VEHTYPE" speedFactor="0.94" vaporized=""/>
    <tripinfo id="9" depart="15.00" departLane="597602756#0_0" departPos="5.10" departSpeed="0.00" departDelay="4.00" arrival="124.00" arrivalLane="-318908683#1_0" arrivalPos="71.22" arrivalSpeed="11.74" duration="109.00" routeLength="1382.88" waitingTime="2.00" waitingCount="1" stopTime="0.00" timeLoss="23.25" rerouteNo="0" devices="tripinfo_9" vType="DEFAULT_VEHTYPE" speedFactor="0.89" vaporized=""/>
    <tripinfo id="39" depart="39.00" departLane="318908683#0_0" departPos="5.10" departSpeed="0.00" departDelay="0.00" arrival="126.00" arrivalLane="422688976#1_0" arrivalPos="294.40" arrivalSpeed="31.75" duration="87.00" routeLength="940.85" waitingTime="32.00" waitingCount="1" stopTime="0.00" timeLoss="55.87" rerouteNo="0" devices="tripinfo_39" vType="DEFAULT_VEHTYPE" speedFactor="1.18" vaporized=""/>
    <tripinfo id="19" depart="18.00" departLane="318908683#0_0" departPos="5.10" departSpeed="0.00" departDelay="0.00" arrival="128.00" arrivalLane="-597602753#1_0" arrivalPos="143.59" arrivalSpeed="20.58" duration="110.00" routeLength="1208.14" waitingTime="24.00" waitingCount="2" stopTime="0.00" timeLoss="50.51" rerouteNo="0" devices="tripinfo_19" vType="DEFAULT_VEHTYPE" speedFactor="0.94" vaporized=""/>
    <tripinfo id="23" depart="21.00" departLane="597602753#0_0" departPos="5.10" departSpeed="0.00" departDelay="0.00" arrival="128.00" arrivalLane="-597602756#0_0" arrivalPos="325.99" arrivalSpeed="21.50" duration="107.00" routeLength="1646.04" waitingTime="4.00" waitingCount="1" stopTime="0.00" timeLoss="32.27" rerouteNo="0" devices="tripinfo_23" vType="DEFAULT_VEHTYPE" speedFactor="1.01" vaporized=""/>
    <tripinfo id="49" depart="46.00" departLane="318908683#0_0" departPos="5.10" departSpeed="0.00" departDelay="0.00" arrival="128.00" arrivalLane="422688976#1_1" arrivalPos="294.40" arrivalSpeed="23.78" duration="82.00" routeLength="940.85" waitingTime="25.00" waitingCount="1" stopTime="0.00" timeLoss="41.10" rerouteNo="0" devices="tripinfo_49" vType="DEFAULT_VEHTYPE" speedFactor="0.90" vaporized=""/>
    <tripinfo id="22" depart="21.00" departLane="318908683#0_0" departPos="5.10" departSpeed="0.00" departDelay="1.00" arrival="130.00" arrivalLane="-597602753#1_0" arrivalPos="143.59" arrivalSpeed="21.62" duration="109.00" routeLength="1208.14" waitingTime="22.00" waitingCount="2" stopTime="0.00" timeLoss="52.83" rerouteNo="0" devices="tripinfo_22" vType="DEFAULT_VEHTYPE" speedFactor="1.02" vaporized=""/>
    <tripinfo id="33" depart="30.00" departLane="318908683#0_0" departPos="5.10" departSpeed="0.00" departDelay="0.00" arrival="131.00" arrivalLane="-597602753#1_0" arrivalPos="143.59" arrivalSpeed="22.72" duration="101.00" routeLength="1208.14" waitingTime="14.00" waitingCount="2" stopTime="0.00" timeLoss="52.27" rerouteNo="0" devices="tripinfo_33" vType="DEFAULT_VEHTYPE" speedFactor="1.15" vaporized=""/>
    <tripinfo id="61" depart="56.00" departLane="318908683#0_0" departPos="5.10" departSpeed="0.00" departDelay="0.00" arrival="132.00" arrivalLane="422688976#1_1" arrivalPos="294.40" arrivalSpeed="26.80" duration="76.00" routeLength="940.85" waitingTime="20.00" waitingCount="1" stopTime="0.00" timeLoss="38.11" rerouteNo="0" devices="tripinfo_61" vType="DEFAULT_VEHTYPE" speedFactor="0.97" vaporized=""/>
    <tripinfo id="35" depart="33.00" departLane="318908683#0_0" departPos="5.10" departSpeed="0.00" departDelay="1.00" arrival="133.00" arrivalLane="-597602753#1_0" arrivalPos="143.59" arrivalSpeed="25.12" duration="100.00" routeLength="1208.14" waitingTime="10.00" waitingCount="2" stopTime="0.00" timeLoss="51.46" rerouteNo="0" devices="tripinfo_35" vType="DEFAULT_VEHTYPE" speedFactor="1.17" vaporized=""/>
    <tripinfo id="12" depart="14.00" departLane="318908683#0_0" departPos="5.10" departSpeed="0.00" departDelay="0.00" arrival="134.00" arrivalLane="-105681660#20_0" arrivalPos="806.12" arrivalSpeed="23.38" duration="120.00" routeLength="1436.85" waitingTime="29.00" waitingCount="2" stopTime="0.00" timeLoss="58.08" rerouteNo="0" devices="tripinfo_12" vType="DEFAULT_VEHTYPE" speedFactor="1.09" vaporized=""/>
    <tripinfo id="101" depart="91.00" departLane="-260998164#3_0" departPos="5.10" departSpeed="0.00" departDelay="0.00" arrival="136.00" arrivalLane="-318908683#1_0" arrivalPos="71.22" arrivalSpeed="14.13" duration="45.00" routeLength="955.07" waitingTime="0.00" waitingCount="0" stopTime="0.00" timeLoss="9.69" rerouteNo="0" devices="tripinfo_101" vType="DEFAULT_VEHTYPE" speedFactor="1.10" vaporized=""/>
    <tripinfo id="2" depart="5.00" departLane="918280985_0" departPos="5.10" departSpeed="0.00" departDelay="0.00" arrival="138.00" arrivalLane="-597602753#1_0" arrivalPos="143.59" arrivalSpeed="22.85" duration="133.00" routeLength="1136.78" waitingTime="36.00" waitingCount="2" stopTime="0.00" timeLoss="58.06" rerouteNo="0" devices="tripinfo_2" vType="DEFAULT_VEHTYPE" speedFactor="1.06" vaporized=""/>
    <tripinfo id="15" depart="15.00" departLane="105681660#12_0" departPos="5.10" departSpeed="0.00" departDelay="0.00" arrival="139.00" arrivalLane="-597602756#0_0" arrivalPos="325.99" arrivalSpeed="24.22" duration="124.00" routeLength="1877.95" waitingTime="24.00" waitingCount="2" stopTime="0.00" timeLoss="46.65" rerouteNo="0" devices="tripinfo_15" vType="DEFAULT_VEHTYPE" speedFactor="1.12" vaporized=""/>
    <tripinfo id="51" depart="52.00" departLane="318908683#0_0" departPos="5.10" departSpeed="0.00" departDelay="4.00" arrival="139.00" arrivalLane="918280984_0" arrivalPos="38.78" arrivalSpeed="11.31" duration="87.00" routeLength="693.58" waitingTime="39.00" waitingCount="1" stopTime="0.00" timeLoss="50.56" rerouteNo="0" devices="tripinfo_51" vType="DEFAULT_VEHTYPE" speedFactor="0.85" vaporized=""/>
    <tripinfo id="4" depart="9.00" departLane="105681660#12_0" departPos="5.10" departSpeed="0.00" departDelay="2.00" arrival="141.00" arrivalLane="260998164#0_0" arrivalPos="257.55" arrivalSpeed="27.09" duration="132.00" routeLength="2169.41" waitingTime="0.00" waitingCount="0" stopTime="0.00" timeLoss="26.83" rerouteNo="0" devices="tripinfo_4" vType="DEFAULT_VEHTYPE" speedFactor="1.01" vaporized=""/>
    <tripinfo id="28" depart="26.00" departLane="-260998164#3_0" departPos="5.10" departSpeed="0.00" departDelay="0.00" arrival="141.00" arrivalLane="918280984_0" arrivalPos="38.78" arrivalSpeed="12.44" duration="115.00" routeLength="1455.19" waitingTime="28.00" waitingCount="2" stopTime="0.00" timeLoss="52.95" rerouteNo="0" devices="tripinfo_28" vType="DEFAULT_VEHTYPE" speedFactor="0.92" vaporized=""/>
    <tripinfo id="84" depart="78.00" departLane="918280985_0" departPos="5.10" departSpeed="0.00" departDelay="0.00" arrival="142.00" arrivalLane="15374898#0-AddedOffRampEdge_0" arrivalPos="100.00" arrivalSpeed="27.55" duration="64.00" routeLength="996.81" waitingTime="5.00" waitingCount="1" stopTime="0.00" timeLoss="25.14" rerouteNo="0" devices="tripinfo_84" vType="DEFAULT_VEHTYPE" speedFactor="1.02" vaporized=""/>
    <tripinfo id="29" depart="29.00" departLane="-260998164#3_0" departPos="5.10" departSpeed="0.00" departDelay="3.00" arrival="143.00" arrivalLane="918280984_0" arrivalPos="38.78" arrivalSpeed="11.94" duration="114.00" routeLength="1465.15" waitingTime="30.00" waitingCount="2" stopTime="0.00" timeLoss="53.20" rerouteNo="0" devices="tripinfo_29" vType="DEFAULT_VEHTYPE" speedFactor="0.95" vaporized=""/>
    <tripinfo id="10" depart="12.00" departLane="597602753#0_0" departPos="5.10" departSpeed="0.00" departDelay="0.00" arrival="144.00" arrivalLane="15374898#0-AddedOffRampEdge_0" arrivalPos="100.00" arrivalSpeed="26.04" duration="132.00" routeLength="1964.42" waitingTime="0.00" waitingCount="0" stopTime="0.00" timeLoss="20.80" rerouteNo="0" devices="tripinfo_10" vType="DEFAULT_VEHTYPE" speedFactor="0.94" vaporized=""/>
    <tripinfo id="40" depart="42.00" departLane="318908683#0_0" departPos="5.10" departSpeed="0.00" departDelay="2.00" arrival="145.00" arrivalLane="-105681660#20_0" arrivalPos="806.12" arrivalSpeed="23.97" duration="103.00" routeLength="1436.85" waitingTime="9.00" waitingCount="1" stopTime="0.00" timeLoss="40.88" rerouteNo="0" devices="tripinfo_40" vType="DEFAULT_VEHTYPE" speedFactor="1.10" vaporized=""/>
    <tripinfo id="32" depart="30.00" departLane="597602756#0_0" departPos="5.10" departSpeed="0.00" departDelay="1.00" arrival="146.00" arrivalLane="-105681660#20_0" arrivalPos="806.12" arrivalSpeed="25.01" duration="116.00" routeLength="1867.67" waitingTime="5.00" waitingCount="2" stopTime="0.00" timeLoss="43.51" rerouteNo="0" devices="tripinfo_32" vType="DEFAULT_VEHTYPE" speedFactor="1.18" vaporized=""/>
    <tripinfo id="92" depart="85.00" departLane="918280985_0" departPos="5.10" departSpeed="0.00" departDelay="0.00" arrival="146.00" arrivalLane="15374898#0-AddedOffRampEdge_0" arrivalPos="100.00" arrivalSpeed="27.56" duration="61.00" routeLength="996.81" waitingTime="1.00" waitingCount="1" stopTime="0.00" timeLoss="21.92" rerouteNo="0" devices="tripinfo_92" vType="DEFAULT_VEHTYPE" speedFactor="1.02" vaporized=""/>
    <tripinfo id="16" depart="18.00" departLane="597602753#0_0" departPos="5.10" departSpeed="0.00" departDelay="2.00" arrival="150.00" arrivalLane="15374898#0-AddedOffRampEdge_0" arrivalPos="100.00" arrivalSpeed="27.47" duration="132.00" routeLength="1964.42" waitingTime="0.00" waitingCount="0" stopTime="0.00" timeLoss="26.26" rerouteNo="0" devices="tripinfo_16" vType="DEFAULT_VEHTYPE" speedFactor="0.99" vaporized=""/>
    <tripinfo id="82" depart="79.00" departLane="597602753#0_0" departPos="5.10" departSpeed="0.00" departDelay="2.00" arrival="152.00" arrivalLane="-105681660#20_0" arrivalPos="806.12" arrivalSpeed="22.98" duration="73.00" routeLength="1387.70" waitingTime="0.00" waitingCount="0" stopTime="0.00" timeLoss="11.46" rerouteNo="0" devices="tripinfo_82" vType="DEFAULT_VEHTYPE" speedFactor="1.03" vaporized=""/>
    <tripinfo id="70" depart="69.00" departLane="-260998164#3_0" departPos="5.10" departSpeed="0.00" departDelay="0.00" arrival="157.00" arrivalLane="-597602756#0_0" arrivalPos="325.99" arrivalSpeed="22.50" duration="88.00" routeLength="1231.40" waitingTime="0.00" waitingCount="0" stopTime="0.00" timeLoss="18.30" rerouteNo="0" devices="tripinfo_70" vType="DEFAULT_VEHTYPE" speedFactor="1.04" vaporized=""/>
    <tripinfo id="31" depart="28.00" departLane="422688973_0" departPos="5.10" departSpeed="0.00" departDelay="1.00" arrival="160.00" arrivalLane="-597602756#0_0" arrivalPos="325.99" arrivalSpeed="20.16" duration="132.00" routeLength="1900.12" waitingTime="12.00" waitingCount="1" stopTime="0.00" timeLoss="42.33" rerouteNo="0" devices="tripinfo_31" vType="DEFAULT_VEHTYPE" speedFactor="0.93" vaporized=""/>
    <tripinfo id="21" depart="19.00" departLane="918280985_0" departPos="5.10" departSpeed="0.00" departDelay="0.00" arrival="161.00" arrivalLane="-597602753#1_0" arrivalPos="143.59" arrivalSpeed="24.67" duration="142.00" routeLength="1072.66" waitingTime="52.00" waitingCount="2" stopTime="0.00" timeLoss="79.01" rerouteNo="0" devices="tripinfo_21" vType="DEFAULT_VEHTYPE" speedFactor="1.16" vaporized=""/>
    <tripinfo id="45" depart="44.00" departLane="422688973_0" departPos="5.10" departSpeed="0.00" departDelay="0.00" arrival="161.00" arrivalLane="-105681660#20_0" arrivalPos="806.12" arrivalSpeed="23.01" duration="117.00" routeLength="1352.23" waitingTime="25.00" waitingCount="2" stopTime="0.00" timeLoss="44.57" rerouteNo="0" devices="tripinfo_45" vType="DEFAULT_VEHTYPE" speedFactor="1.04" vaporized=""/>
    <tripinfo id="77" depart="76.00" departLane="422688973_0" departPos="5.10" departSpeed="0.00" departDelay="2.00" arrival="161.00" arrivalLane="15374898#0-AddedOffRampEdge_0" arrivalPos="100.00" arrivalSpeed="26.95" duration="85.00" routeLength="1006.54" waitingTime="26.00" waitingCount="1" stopTime="0.00" timeLoss="47.23" rerouteNo="0" devices="tripinfo_77" vType="DEFAULT_VEHTYPE" speedFactor="0.98" vaporized=""/>
    <tripinfo id="57" depart="56.00" departLane="597602756#0_0" departPos="5.10" departSpeed="0.00" departDelay="4.00" arrival="162.00" arrivalLane="260998164#0_0" arrivalPos="257.55" arrivalSpeed="26.80" duration="106.00" routeLength="1239.91" waitingTime="10.00" waitingCount="1" stopTime="0.00" timeLoss="32.76" rerouteNo="0" devices="tripinfo_57" vType="DEFAULT_VEHTYPE" speedFactor="1.00" vaporized=""/>
    <tripinfo id="64" depart="60.00" departLane="422688973_0" departPos="5.10" departSpeed="0.00" departDelay="0.00" arrival="163.00" arrivalLane="-105681660#20_0" arrivalPos="806.12" arrivalSpeed="22.41" duration="103.00" routeLength="1352.23" waitingTime="5.00" waitingCount="1" stopTime="0.00" timeLoss="29.21" rerouteNo="0" devices="tripinfo_64" vType="DEFAULT_VEHTYPE" speedFactor="1.02" vaporized=""/>
    <tripinfo id="41" depart="40.00" departLane="422688973_0" departPos="5.10" departSpeed="0.00" departDelay="0.00" arrival="164.00" arrivalLane="-597602756#0_0" arrivalPos="325.99" arrivalSpeed="19.21" duration="124.00" routeLength="1900.12" waitingTime="2.00" waitingCount="1" stopTime="0.00" timeLoss="31.33" rerouteNo="0" devices="tripinfo_41" vType="DEFAULT_VEHTYPE" speedFactor="0.90" vaporized=""/>
    <tripinfo id="60" depart="62.00" departLane="597602756#0_0" departPos="5.10" departSpeed="0.00" departDelay="6.00" arrival="164.00" arrivalLane="260998164#0_0" arrivalPos="257.55" arrivalSpeed="28.16" duration="102.00" routeLength="1239.91" waitingTime="10.00" waitingCount="1" stopTime="0.00" timeLoss="30.39" rerouteNo="0" devices="tripinfo_60" vType="DEFAULT_VEHTYPE" speedFactor="1.02" vaporized=""/>
    <tripinfo id="66" depart="63.00" departLane="422688973_0" departPos="5.10" departSpeed="0.00" departDelay="0.00" arrival="164.00" arrivalLane="-597602753#1_0" arrivalPos="143.59" arrivalSpeed="20.41" duration="101.00" routeLength="1114.81" waitingTime="6.00" waitingCount="2" stopTime="0.00" timeLoss="30.93" rerouteNo="0" devices="tripinfo_66" vType="DEFAULT_VEHTYPE" speedFactor="0.94" vaporized=""/>
    <tripinfo id="99" depart="88.00" departLane="422688973_0" departPos="5.10" departSpeed="0.00" departDelay="0.00" arrival="164.00" arrivalLane="15374898#0-AddedOffRampEdge_0" arrivalPos="100.00" arrivalSpeed="23.93" duration="76.00" routeLength="1006.54" waitingTime="15.00" waitingCount="1" stopTime="0.00" timeLoss="34.76" rerouteNo="0" devices="tripinfo_99" vType="DEFAULT_VEHTYPE" speedFactor="0.91" vaporized=""/>
    <tripinfo id="52" depart="48.00" departLane="597602753#0_0" departPos="5.10" departSpeed="0.00" departDelay="0.00" arrival="167.00" arrivalLane="422688976#1_0" arrivalPos="294.40" arrivalSpeed="23.14" duration="119.00" routeLength="1286.53" waitingTime="8.00" waitingCount="1" stopTime="0.00" timeLoss="26.69" rerouteNo="0" devices="tripinfo_52" vType="DEFAULT_VEHTYPE" speedFactor="0.85" vaporized=""/>
    <tripinfo id="104" depart="94.00" departLane="422688973_0" departPos="5.10" departSpeed="0.00" departDelay="0.00" arrival="167.00" arrivalLane="15374898#0-AddedOffRampEdge_0" arrivalPos="100.00" arrivalSpeed="26.27" duration="73.00" routeLength="1006.54" waitingTime="10.00" waitingCount="1" stopTime="0.00" timeLoss="34.72" rerouteNo="0" devices="tripinfo_104" vType="DEFAULT_VEHTYPE" speedFactor="0.97" vaporized=""/>
    <tripinfo id="38" depart="38.00" departLane="-260998164#3_0" departPos="5.10" departSpeed="0.00" departDelay="0.00" arrival="168.00" arrivalLane="-597602753#1_0" arrivalPos="143.59" arrivalSpeed="21.23" duration="130.00" routeLength="1969.75" waitingTime="15.00" waitingCount="2" stopTime="0.00" timeLoss="44.95" rerouteNo="0" devices="tripinfo_38" vType="DEFAULT_VEHTYPE" speedFactor="0.97" vaporized=""/>
    <tripinfo id="87" depart="82.00" departLane="597602756#0_0" departPos="5.10" departSpeed="0.00" departDelay="0.00" arrival="172.00" arrivalLane="260998164#0_0" arrivalPos="257.55" arrivalSpeed="27.03" duration="90.00" routeLength="1239.91" waitingTime="0.00" waitingCount="0" stopTime="0.00" timeLoss="14.96" rerouteNo="0" devices="tripinfo_87" vType="DEFAULT_VEHTYPE" speedFactor="0.98" vaporized=""/>
    <tripinfo id="91" depart="85.00" departLane="597602756#0_0" departPos="5.10" departSpeed="0.00" departDelay="1.00" arrival="174.00" arrivalLane="260998164#0_0" arrivalPos="257.55" arrivalSpeed="27.78" duration="89.00" routeLength="1239.91" waitingTime="0.00" waitingCount="0" stopTime="0.00" timeLoss="16.93" rerouteNo="0" devices="tripinfo_91" vType="DEFAULT_VEHTYPE" speedFactor="1.02" vaporized=""/>
    <tripinfo id="13" depart="14.00" departLane="918280985_0" departPos="5.10" departSpeed="0.00" departDelay="0.00" arrival="177.00" arrivalLane="-597602756#0_0" arrivalPos="325.99" arrivalSpeed="22.29" duration="163.00" routeLength="1615.08" waitingTime="50.00" waitingCount="2" stopTime="0.00" timeLoss="75.51" rerouteNo="0" devices="tripinfo_13" vType="DEFAULT_VEHTYPE" speedFactor="1.03" vaporized=""/>
    <tripinfo id="5" depart="9.00" departLane="597602756#0_0" departPos="5.10" departSpeed="0.00" departDelay="0.00" arrival="179.00" arrivalLane="422688976#1_0" arrivalPos="294.40" arrivalSpeed="29.76" duration="170.00" routeLength="2140.23" waitingTime="37.00" waitingCount="2" stopTime="0.00" timeLoss="78.15" rerouteNo="0" devices="tripinfo_5" vType="DEFAULT_VEHTYPE" speedFactor="1.08" vaporized=""/>
    <tripinfo id="56" depart="51.00" departLane="-260998164#3_0" departPos="5.10" departSpeed="0.00" departDelay="0.00" arrival="180.00" arrivalLane="422688976#1_2" arrivalPos="294.40" arrivalSpeed="27.80" duration="129.00" routeLength="1702.46" waitingTime="32.00" waitingCount="3" stopTime="0.00" timeLoss="66.40" rerouteNo="0" devices="tripinfo_56" vType="DEFAULT_VEHTYPE" speedFactor="1.00" vaporized=""/>
    <tripinfo id="37" depart="34.00" departLane="-260998164#3_0" departPos="5.10" departSpeed="0.00" departDelay="0.00" arrival="181.00" arrivalLane="-105681660#20_0" arrivalPos="806.12" arrivalSpeed="22.07" duration="147.00" routeLength="2208.42" waitingTime="22.00" waitingCount="2" stopTime="0.00" timeLoss="54.00" rerouteNo="0" devices="tripinfo_37" vType="DEFAULT_VEHTYPE" speedFactor="1.02" vaporized=""/>
    <tripinfo id="7" depart="12.00" departLane="597602756#0_0" departPos="5.10" departSpeed="0.00" departDelay="1.00" arrival="182.00" arrivalLane="422688976#1_0" arrivalPos="294.40" arrivalSpeed="21.86" duration="170.00" routeLength="1985.14" waitingTime="38.00" waitingCount="2" stopTime="0.00" timeLoss="67.71" rerouteNo="0" devices="tripinfo_7" vType="DEFAULT_VEHTYPE" speedFactor="0.83" vaporized=""/>
    <tripinfo id="62" depart="59.00" departLane="-260998164#3_0" departPos="5.10" departSpeed="0.00" departDelay="0.00" arrival="182.00" arrivalLane="-105681660#20_0" arrivalPos="806.12" arrivalSpeed="22.97" duration="123.00" routeLength="2208.42" waitingTime="3.00" waitingCount="1" stopTime="0.00" timeLoss="36.78" rerouteNo="0" devices="tripinfo_62" vType="DEFAULT_VEHTYPE" speedFactor="1.08" vaporized=""/>
    <tripinfo id="25" depart="22.00" departLane="422685671#2_0" departPos="5.10" departSpeed="0.00" departDelay="0.00" arrival="183.00" arrivalLane="422688976#1_1" arrivalPos="294.40" arrivalSpeed="23.88" duration="161.00" routeLength="1317.05" waitingTime="75.00" waitingCount="2" stopTime="0.00" timeLoss="105.36" rerouteNo="0" devices="tripinfo_25" vType="DEFAULT_VEHTYPE" speedFactor="0.89" vaporized=""/>
    <tripinfo id="88" depart="83.00" departLane="318908683#0_0" departPos="5.10" departSpeed="0.00" departDelay="0.00" arrival="183.00" arrivalLane="260998164#0_0" arrivalPos="257.55" arrivalSpeed="27.38" duration="100.00" routeLength="939.98" waitingTime="50.00" waitingCount="1" stopTime="0.00" timeLoss="62.66" rerouteNo="0" devices="tripinfo_88" vType="DEFAULT_VEHTYPE" speedFactor="1.00" vaporized=""/>
    <tripinfo id="71" depart="70.00" departLane="422685671#2_0" departPos="5.10" departSpeed="0.00" departDelay="0.00" arrival="186.00" arrivalLane="422688976#1_1" arrivalPos="294.40" arrivalSpeed="27.21" duration="116.00" routeLength="1317.05" waitingTime="33.00" waitingCount="2" stopTime="0.00" timeLoss="67.89" rerouteNo="0" devices="tripinfo_71" vType="DEFAULT_VEHTYPE" speedFactor="1.02" vaporized=""/>
    <tripinfo id="114" depart="108.00" departLane="105681660#12_0" departPos="5.10" departSpeed="0.00" departDelay="0.00" arrival="187.00" arrivalLane="-597602753#1_0" arrivalPos="143.59" arrivalSpeed="23.38" duration="79.00" routeLength="1380.56" waitingTime="1.00" waitingCount="1" stopTime="0.00" timeLoss="21.14" rerouteNo="0" devices="tripinfo_114" vType="DEFAULT_VEHTYPE" speedFactor="1.10" vaporized=""/>
    <tripinfo id="90" depart="84.00" departLane="597602753#0_0" departPos="5.10" departSpeed="0.00" departDelay="0.00" arrival="188.00" arrivalLane="-105681660#20_0" arrivalPos="806.12" arrivalSpeed="21.30" duration="104.00" routeLength="1387.70" waitingTime="21.00" waitingCount="2" stopTime="0.00" timeLoss="40.79" rerouteNo="0" devices="tripinfo_90" vType="DEFAULT_VEHTYPE" speedFactor="1.01" vaporized=""/>
    <tripinfo id="106" depart="96.00" departLane="318908683#0_0" departPos="5.10" departSpeed="0.00" departDelay="0.00" arrival="189.00" arrivalLane="260998164#0_0" arrivalPos="257.55" arrivalSpeed="24.58" duration="93.00" routeLength="939.98" waitingTime="39.00" waitingCount="1" stopTime="0.00" timeLoss="51.28" rerouteNo="0" devices="tripinfo_106" vType="DEFAULT_VEHTYPE" speedFactor="0.89" vaporized=""/>
    <tripinfo id="11" depart="14.00" departLane="422685671#2_0" departPos="5.10" departSpeed="0.00" departDelay="0.00" arrival="190.00" arrivalLane="918280984_0" arrivalPos="38.78" arrivalSpeed="11.04" duration="176.00" routeLength="1069.78" waitingTime="96.00" waitingCount="3" stopTime="0.00" timeLoss="125.09" rerouteNo="0" devices="tripinfo_11" vType="DEFAULT_VEHTYPE" speedFactor="0.86" vaporized=""/>
    <tripinfo id="81" depart="76.00" departLane="597602753#0_0" departPos="5.10" departSpeed="0.00" departDelay="0.00" arrival="192.00" arrivalLane="260998164#0_0" arrivalPos="257.55" arrivalSpeed="28.97" duration="116.00" routeLength="1937.50" waitingTime="0.00" waitingCount="0" stopTime="0.00" timeLoss="29.23" rerouteNo="0" devices="tripinfo_81" vType="DEFAULT_VEHTYPE" speedFactor="1.09" vaporized=""/>
    <tripinfo id="98" depart="93.00" departLane="422685671#2_0" departPos="5.10" departSpeed="0.00" departDelay="5.00" arrival="192.00" arrivalLane="918280984_0" arrivalPos="38.78" arrivalSpeed="13.05" duration="99.00" routeLength="1069.78" waitingTime="12.00" waitingCount="3" stopTime="0.00" timeLoss="55.37" rerouteNo="0" devices="tripinfo_98" vType="DEFAULT_VEHTYPE" speedFactor="1.01" vaporized=""/>
    <tripinfo id="36" depart="33.00" departLane="422685671#2_0" departPos="5.10" departSpeed="0.00" departDelay="0.00" arrival="193.00" arrivalLane="-597602756#0_0" arrivalPos="325.99" arrivalSpeed="21.63" duration="160.00" routeLength="1778.05" waitingTime="52.00" waitingCount="1" stopTime="0.00" timeLoss="81.21" rerouteNo="0" devices="tripinfo_36" vType="DEFAULT_VEHTYPE" speedFactor="0.99" vaporized=""/>
    <tripinfo id="80" depart="76.00" departLane="-260998164#3_0" departPos="5.10" departSpeed="0.00" departDelay="0.00" arrival="193.00" arrivalLane="918280984_0" arrivalPos="38.78" arrivalSpeed="12.71" duration="117.00" routeLength="1455.19" waitingTime="30.00" waitingCount="2" stopTime="0.00" timeLoss="61.28" rerouteNo="0" devices="tripinfo_80" vType="DEFAULT_VEHTYPE" speedFactor="1.01" vaporized=""/>
    <tripinfo id="74" depart="71.00" departLane="318908683#0_0" departPos="5.10" departSpeed="0.00" departDelay="0.00" arrival="195.00" arrivalLane="918280984_0" arrivalPos="38.78" arrivalSpeed="12.99" duration="124.00" routeLength="693.58" waitingTime="68.00" waitingCount="2" stopTime="0.00" timeLoss="91.28" rerouteNo="0" devices="tripinfo_74" vType="DEFAULT_VEHTYPE" speedFactor="0.94" vaporized=""/>