<?xml version="1.0" encoding="UTF-8"?>

<!-- generated on 2023-04-30 11:55:25 by Eclipse SUMO sumo Version 1.16.0
<configuration xmlns:xsi="http://www.w3.org/2001/XMLSchema-instance" xsi:noNamespaceSchemaLocation="http://sumo.dlr.de/xsd/sumoConfiguration.xsd">

    <input>
        <net-file value="C:\Users\Local_Man\Desktop\Stolen%20Music\school%20stuff%20for%20college\Semester%2015%20(UH%20Graduate%20School)\COSC%206364%20Nikolaos\SUMO_Project\COSC6364_Project\configurations\maps\4corners_neighborhoods.net.xml"/>
        <route-files value="./configurations/Rounds/4corners_neighborhoods.net.xml-small_test-0/Macroscopic_DUE/001/Trips_File_001.rou.xml"/>
    </input>

    <output>
        <summary-output value="./configurations/Rounds/4corners_neighborhoods.net.xml-small_test-0/Macroscopic_DUE/001/summary.xml"/>
        <tripinfo-output value="./configurations/Rounds/4corners_neighborhoods.net.xml-small_test-0/Macroscopic_DUE/001/trips.trips.xml"/>
        <statistic-output value="./configurations/Rounds/4corners_neighborhoods.net.xml-small_test-0/Macroscopic_DUE/001/stats_output.xml"/>
    </output>

    <time>
        <begin value="0"/>
    </time>

    <report>
        <log value="./configurations/Rounds/4corners_neighborhoods.net.xml-small_test-0/Macroscopic_DUE/001/log.sumo.log"/>
        <no-step-log value="true"/>
    </report>

    <gui_only>
        <quit-on-end value="true"/>
    </gui_only>

</configuration>
-->

<tripinfos xmlns:xsi="http://www.w3.org/2001/XMLSchema-instance" xsi:noNamespaceSchemaLocation="http://sumo.dlr.de/xsd/tripinfo_file.xsd">
    <tripinfo id="24" depart="18.00" departLane="318908683#0_0" departPos="5.10" departSpeed="12.42" departDelay="0.00" arrival="83.00" arrivalLane="422688976#1_0" arrivalPos="294.40" arrivalSpeed="23.97" duration="65.00" routeLength="940.85" waitingTime="13.00" waitingCount="1" stopTime="0.00" timeLoss="23.86" rerouteNo="0" devices="tripinfo_24" vType="DEFAULT_VEHTYPE" speedFactor="0.89" vaporized=""/>
    <tripinfo id="42" depart="27.00" departLane="318908683#0_0" departPos="5.10" departSpeed="14.56" departDelay="0.00" arrival="88.00" arrivalLane="422688976#1_1" arrivalPos="294.40" arrivalSpeed="29.11" duration="61.00" routeLength="940.85" waitingTime="5.00" waitingCount="1" stopTime="0.00" timeLoss="25.85" rerouteNo="0" devices="tripinfo_42" vType="DEFAULT_VEHTYPE" speedFactor="1.05" vaporized=""/>
    <tripinfo id="13" depart="8.00" departLane="422688973_0" departPos="5.10" departSpeed="0.00" departDelay="0.00" arrival="91.00" arrivalLane="-597602753#1_0" arrivalPos="143.59" arrivalSpeed="22.05" duration="83.00" routeLength="1114.81" waitingTime="0.00" waitingCount="0" stopTime="0.00" timeLoss="19.98" rerouteNo="0" devices="tripinfo_13" vType="DEFAULT_VEHTYPE" speedFactor="1.04" vaporized=""/>
    <tripinfo id="16" depart="11.00" departLane="597602756#0_0" departPos="5.10" departSpeed="22.45" departDelay="0.00" arrival="94.00" arrivalLane="260998164#0_0" arrivalPos="257.55" arrivalSpeed="27.09" duration="83.00" routeLength="1239.91" waitingTime="0.00" waitingCount="0" stopTime="0.00" timeLoss="10.75" rerouteNo="0" devices="tripinfo_16" vType="DEFAULT_VEHTYPE" speedFactor="1.01" vaporized=""/>
    <tripinfo id="4" depart="2.00" departLane="422685671#2_0" departPos="5.10" departSpeed="29.94" departDelay="0.00" arrival="95.00" arrivalLane="918280984_0" arrivalPos="38.78" arrivalSpeed="14.01" duration="93.00" routeLength="1069.78" waitingTime="39.00" waitingCount="1" stopTime="0.00" timeLoss="52.24" rerouteNo="0" devices="tripinfo_4" vType="DEFAULT_VEHTYPE" speedFactor="1.08" vaporized=""/>
    <tripinfo id="3" depart="1.00" departLane="597602756#0_0" departPos="5.10" departSpeed="24.06" departDelay="0.00" arrival="97.00" arrivalLane="-597602753#1_0" arrivalPos="143.59" arrivalSpeed="23.94" duration="96.00" routeLength="1638.96" waitingTime="9.00" waitingCount="1" stopTime="0.00" timeLoss="26.35" rerouteNo="0" devices="tripinfo_3" vType="DEFAULT_VEHTYPE" speedFactor="1.08" vaporized=""/>
    <tripinfo id="21" depart="14.00" departLane="318908683#0_0" departPos="5.10" departSpeed="14.01" departDelay="0.00" arrival="97.00" arrivalLane="918280984_0" arrivalPos="38.78" arrivalSpeed="13.81" duration="83.00" routeLength="693.58" waitingTime="36.00" waitingCount="2" stopTime="0.00" timeLoss="52.08" rerouteNo="0" devices="tripinfo_21" vType="DEFAULT_VEHTYPE" speedFactor="1.01" vaporized=""/>
    <tripinfo id="53" depart="35.00" departLane="318908683#0_0" departPos="5.10" departSpeed="12.60" departDelay="0.00" arrival="99.00" arrivalLane="918280984_0" arrivalPos="38.78" arrivalSpeed="11.82" duration="64.00" routeLength="693.58" waitingTime="14.00" waitingCount="2" stopTime="0.00" timeLoss="30.30" rerouteNo="0" devices="tripinfo_53" vType="DEFAULT_VEHTYPE" speedFactor="0.91" vaporized=""/>
    <tripinfo id="11" depart="7.00" departLane="-260998164#3_0" departPos="5.10" departSpeed="25.64" departDelay="0.00" arrival="100.00" arrivalLane="15374898#0-AddedOffRampEdge_1" arrivalPos="100.00" arrivalSpeed="25.47" duration="93.00" routeLength="1332.80" waitingTime="29.00" waitingCount="1" stopTime="0.00" timeLoss="40.76" rerouteNo="0" devices="tripinfo_11" vType="DEFAULT_VEHTYPE" speedFactor="0.92" vaporized=""/>
    <tripinfo id="14" depart="8.00" departLane="-260998164#3_0" departPos="5.10" departSpeed="23.25" departDelay="0.00" arrival="102.00" arrivalLane="15374898#0-AddedOffRampEdge_1" arrivalPos="100.00" arrivalSpeed="24.46" duration="94.00" routeLength="1332.80" waitingTime="28.00" waitingCount="1" stopTime="0.00" timeLoss="40.49" rerouteNo="0" devices="tripinfo_14" vType="DEFAULT_VEHTYPE" speedFactor="0.90" vaporized=""/>
    <tripinfo id="10" depart="7.00" departLane="105681660#12_0" departPos="5.10" departSpeed="24.95" departDelay="0.00" arrival="106.00" arrivalLane="-597602756#0_0" arrivalPos="325.99" arrivalSpeed="24.86" duration="99.00" routeLength="1877.95" waitingTime="0.00" waitingCount="0" stopTime="0.00" timeLoss="20.75" rerouteNo="0" devices="tripinfo_10" vType="DEFAULT_VEHTYPE" speedFactor="1.12" vaporized=""/>
    <tripinfo id="19" depart="14.00" departLane="-260998164#3_0" departPos="5.10" departSpeed="24.71" departDelay="0.00" arrival="106.00" arrivalLane="-318908683#1_0" arrivalPos="71.22" arrivalSpeed="11.19" duration="92.00" routeLength="955.07" waitingTime="40.00" waitingCount="1" stopTime="0.00" timeLoss="48.31" rerouteNo="0" devices="tripinfo_19" vType="DEFAULT_VEHTYPE" speedFactor="0.89" vaporized=""/>
    <tripinfo id="6" depart="2.00" departLane="-260998164#3_0" departPos="5.10" departSpeed="33.35" departDelay="0.00" arrival="107.00" arrivalLane="918280984_0" arrivalPos="38.78" arrivalSpeed="15.90" duration="105.00" routeLength="1465.15" waitingTime="42.00" waitingCount="1" stopTime="0.00" timeLoss="56.83" rerouteNo="0" devices="tripinfo_6" vType="DEFAULT_VEHTYPE" speedFactor="1.20" vaporized=""/>
    <tripinfo id="26" depart="19.00" departLane="422685671#2_1" departPos="5.10" departSpeed="27.64" departDelay="0.00" arrival="115.00" arrivalLane="260998164#0_0" arrivalPos="257.55" arrivalSpeed="26.79" duration="96.00" routeLength="1329.43" waitingTime="37.00" waitingCount="1" stopTime="0.00" timeLoss="47.09" rerouteNo="0" devices="tripinfo_26" vType="DEFAULT_VEHTYPE" speedFactor="0.99" vaporized=""/>
    <tripinfo id="23" depart="15.00" departLane="422685671#2_0" departPos="5.10" departSpeed="28.67" departDelay="0.00" arrival="116.00" arrivalLane="260998164#0_0" arrivalPos="257.55" arrivalSpeed="28.06" duration="101.00" routeLength="1329.43" waitingTime="41.00" waitingCount="1" stopTime="0.00" timeLoss="54.28" rerouteNo="0" devices="tripinfo_23" vType="DEFAULT_VEHTYPE" speedFactor="1.03" vaporized=""/>
    <tripinfo id="25" depart="20.00" departLane="105681660#12_0" departPos="5.10" departSpeed="23.79" departDelay="1.00" arrival="118.00" arrivalLane="918280984_0" arrivalPos="38.78" arrivalSpeed="14.44" duration="98.00" routeLength="1405.13" waitingTime="5.00" waitingCount="1" stopTime="0.00" timeLoss="25.44" rerouteNo="0" devices="tripinfo_25" vType="DEFAULT_VEHTYPE" speedFactor="1.12" vaporized=""/>
    <tripinfo id="2" depart="0.00" departLane="918280985_0" departPos="5.10" departSpeed="13.55" departDelay="0.00" arrival="120.00" arrivalLane="-597602753#1_0" arrivalPos="143.59" arrivalSpeed="20.39" duration="120.00" routeLength="1072.66" waitingTime="31.00" waitingCount="1" stopTime="0.00" timeLoss="44.98" rerouteNo="0" devices="tripinfo_2" vType="DEFAULT_VEHTYPE" speedFactor="0.98" vaporized=""/>
    <tripinfo id="29" depart="20.00" departLane="422688973_0" departPos="5.10" departSpeed="15.75" departDelay="0.00" arrival="120.00" arrivalLane="15374898#0-AddedOffRampEdge_0" arrivalPos="100.00" arrivalSpeed="28.22" duration="100.00" routeLength="1006.54" waitingTime="41.00" waitingCount="1" stopTime="0.00" timeLoss="63.02" rerouteNo="0" devices="tripinfo_29" vType="DEFAULT_VEHTYPE" speedFactor="1.02" vaporized=""/>
    <tripinfo id="15" depart="11.00" departLane="597602753#0_0" departPos="5.10" departSpeed="24.06" departDelay="0.00" arrival="123.00" arrivalLane="422688976#1_0" arrivalPos="294.40" arrivalSpeed="29.05" duration="112.00" routeLength="1286.53" waitingTime="25.00" waitingCount="1" stopTime="0.00" timeLoss="39.07" rerouteNo="0" devices="tripinfo_15" vType="DEFAULT_VEHTYPE" speedFactor="1.08" vaporized=""/>
    <tripinfo id="45" depart="31.00" departLane="422688973_2" departPos="5.10" departSpeed="0.24" departDelay="0.00" arrival="124.00" arrivalLane="15374898#0-AddedOffRampEdge_0" arrivalPos="100.00" arrivalSpeed="25.96" duration="93.00" routeLength="1006.54" waitingTime="30.00" waitingCount="1" stopTime="0.00" timeLoss="54.36" rerouteNo="0" devices="tripinfo_45" vType="DEFAULT_VEHTYPE" speedFactor="0.96" vaporized=""/>
    <tripinfo id="41" depart="26.00" departLane="422688973_2" departPos="5.10" departSpeed="0.24" departDelay="0.00" arrival="125.00" arrivalLane="-318908683#1_0" arrivalPos="71.22" arrivalSpeed="15.67" duration="99.00" routeLength="684.23" waitingTime="45.00" waitingCount="2" stopTime="0.00" timeLoss="74.62" rerouteNo="0" devices="tripinfo_41" vType="DEFAULT_VEHTYPE" speedFactor="1.17" vaporized=""/>
    <tripinfo id="18" depart="12.00" departLane="597602753#0_0" departPos="5.10" departSpeed="21.61" departDelay="0.00" arrival="126.00" arrivalLane="-597602756#0_0" arrivalPos="325.99" arrivalSpeed="22.17" duration="114.00" routeLength="1646.04" waitingTime="21.00" waitingCount="1" stopTime="0.00" timeLoss="40.15" rerouteNo="0" devices="tripinfo_18" vType="DEFAULT_VEHTYPE" speedFactor="1.03" vaporized=""/>
    <tripinfo id="76" depart="72.00" departLane="422688973_0" departPos="5.10" departSpeed="11.21" departDelay="0.00" arrival="127.00" arrivalLane="15374898#0-AddedOffRampEdge_0" arrivalPos="100.00" arrivalSpeed="31.70" duration="55.00" routeLength="1006.54" waitingTime="0.00" waitingCount="0" stopTime="0.00" timeLoss="22.45" rerouteNo="0" devices="tripinfo_76" vType="DEFAULT_VEHTYPE" speedFactor="1.14" vaporized=""/>
    <tripinfo id="50" depart="33.00" departLane="318908683#0_0" departPos="5.10" departSpeed="13.86" departDelay="0.00" arrival="128.00" arrivalLane="-597602753#1_0" arrivalPos="143.59" arrivalSpeed="22.09" duration="95.00" routeLength="1208.14" waitingTime="16.00" waitingCount="2" stopTime="0.00" timeLoss="38.90" rerouteNo="0" devices="tripinfo_50" vType="DEFAULT_VEHTYPE" speedFactor="1.00" vaporized=""/>
    <tripinfo id="7" depart="2.00" departLane="105681660#12_0" departPos="5.10" departSpeed="23.24" departDelay="0.00" arrival="130.00" arrivalLane="260998164#0_0" arrivalPos="257.55" arrivalSpeed="27.91" duration="128.00" routeLength="2169.41" waitingTime="3.00" waitingCount="1" stopTime="0.00" timeLoss="26.81" rerouteNo="0" devices="tripinfo_7" vType="DEFAULT_VEHTYPE" speedFactor="1.05" vaporized=""/>
    <tripinfo id="38" depart="25.00" departLane="597602753#0_0" departPos="5.10" departSpeed="23.64" departDelay="0.00" arrival="130.00" arrivalLane="-597602756#0_0" arrivalPos="325.99" arrivalSpeed="22.96" duration="105.00" routeLength="1646.04" waitingTime="16.00" waitingCount="1" stopTime="0.00" timeLoss="33.65" rerouteNo="0" devices="tripinfo_38" vType="DEFAULT_VEHTYPE" speedFactor="1.06" vaporized=""/>
    <tripinfo id="20" depart="14.00" departLane="918280985_0" departPos="5.10" departSpeed="12.12" departDelay="0.00" arrival="134.00" arrivalLane="-105681660#20_0" arrivalPos="806.12" arrivalSpeed="18.68" duration="120.00" routeLength="1360.98" waitingTime="20.00" waitingCount="1" stopTime="0.00" timeLoss="32.34" rerouteNo="0" devices="tripinfo_20" vType="DEFAULT_VEHTYPE" speedFactor="0.87" vaporized=""/>
    <tripinfo id="58" depart="48.00" departLane="597602753#0_0" departPos="5.10" departSpeed="24.84" departDelay="0.00" arrival="139.00" arrivalLane="-105681660#20_0" arrivalPos="806.12" arrivalSpeed="23.79" duration="91.00" routeLength="1387.70" waitingTime="17.00" waitingCount="1" stopTime="0.00" timeLoss="33.95" rerouteNo="0" devices="tripinfo_58" vType="DEFAULT_VEHTYPE" speedFactor="1.12" vaporized=""/>
    <tripinfo id="43" depart="51.00" departLane="918280985_0" departPos="5.10" departSpeed="2.47" departDelay="24.00" arrival="142.00" arrivalLane="-597602753#1_0" arrivalPos="143.59" arrivalSpeed="22.09" duration="91.00" routeLength="1072.66" waitingTime="0.00" waitingCount="0" stopTime="0.00" timeLoss="17.91" rerouteNo="0" devices="tripinfo_43" vType="DEFAULT_VEHTYPE" speedFactor="1.00" vaporized=""/>
    <tripinfo id="77" depart="74.00" departLane="105681660#12_0" departPos="5.10" departSpeed="21.51" departDelay="0.00" arrival="147.00" arrivalLane="-597602753#1_0" arrivalPos="143.59" arrivalSpeed="20.66" duration="73.00" routeLength="1380.56" waitingTime="0.00" waitingCount="0" stopTime="0.00" timeLoss="7.42" rerouteNo="0" devices="tripinfo_77" vType="DEFAULT_VEHTYPE" speedFactor="0.97" vaporized=""/>
    <tripinfo id="8" depart="3.00" departLane="105681660#12_0" departPos="5.10" departSpeed="21.02" departDelay="0.00" arrival="151.00" arrivalLane="422688976#1_0" arrivalPos="294.40" arrivalSpeed="27.52" duration="148.00" routeLength="2020.13" waitingTime="31.00" waitingCount="2" stopTime="0.00" timeLoss="63.14" rerouteNo="0" devices="tripinfo_8" vType="DEFAULT_VEHTYPE" speedFactor="1.02" vaporized=""/>
    <tripinfo id="12" depart="9.00" departLane="-260998164#3_0" departPos="5.10" departSpeed="21.63" departDelay="1.00" arrival="152.00" arrivalLane="422688976#1_0" arrivalPos="294.40" arrivalSpeed="24.53" duration="143.00" routeLength="1712.42" waitingTime="51.00" waitingCount="2" stopTime="0.00" timeLoss="75.22" rerouteNo="0" devices="tripinfo_12" vType="DEFAULT_VEHTYPE" speedFactor="0.93" vaporized=""/>
    <tripinfo id="39" depart="25.00" departLane="-260998164#3_0" departPos="5.10" departSpeed="28.36" departDelay="0.00" arrival="152.00" arrivalLane="422688976#1_1" arrivalPos="294.40" arrivalSpeed="27.33" duration="127.00" routeLength="1712.42" waitingTime="40.00" waitingCount="2" stopTime="0.00" timeLoss="64.32" rerouteNo="0" devices="tripinfo_39" vType="DEFAULT_VEHTYPE" speedFactor="1.02" vaporized=""/>
    <tripinfo id="5" depart="2.00" departLane="918280985_0" departPos="5.10" departSpeed="13.03" departDelay="0.00" arrival="154.00" arrivalLane="-597602756#0_0" arrivalPos="325.99" arrivalSpeed="20.71" duration="152.00" routeLength="1891.55" waitingTime="31.00" waitingCount="1" stopTime="0.00" timeLoss="52.85" rerouteNo="0" devices="tripinfo_5" vType="DEFAULT_VEHTYPE" speedFactor="0.94" vaporized=""/>
    <tripinfo id="27" depart="19.00" departLane="597602753#0_0" departPos="5.10" departSpeed="21.52" departDelay="0.00" arrival="154.00" arrivalLane="422688976#1_1" arrivalPos="294.40" arrivalSpeed="26.01" duration="135.00" routeLength="1788.22" waitingTime="20.00" waitingCount="2" stopTime="0.00" timeLoss="58.00" rerouteNo="0" devices="tripinfo_27" vType="DEFAULT_VEHTYPE" speedFactor="0.97" vaporized=""/>
    <tripinfo id="9" depart="4.00" departLane="-260998164#3_0" departPos="5.10" departSpeed="30.30" departDelay="0.00" arrival="157.00" arrivalLane="-597602753#1_0" arrivalPos="143.59" arrivalSpeed="24.19" duration="153.00" routeLength="1979.71" waitingTime="51.00" waitingCount="2" stopTime="0.00" timeLoss="77.07" rerouteNo="0" devices="tripinfo_9" vType="DEFAULT_VEHTYPE" speedFactor="1.09" vaporized=""/>
    <tripinfo id="44" depart="30.00" departLane="597602753#0_0" departPos="5.10" departSpeed="24.46" departDelay="0.00" arrival="158.00" arrivalLane="260998164#0_0" arrivalPos="257.55" arrivalSpeed="30.16" duration="128.00" routeLength="1937.50" waitingTime="12.00" waitingCount="1" stopTime="0.00" timeLoss="42.09" rerouteNo="0" devices="tripinfo_44" vType="DEFAULT_VEHTYPE" speedFactor="1.10" vaporized=""/>
    <tripinfo id="60" depart="51.00" departLane="318908683#0_0" departPos="5.10" departSpeed="12.76" departDelay="0.00" arrival="158.00" arrivalLane="422688976#1_1" arrivalPos="294.40" arrivalSpeed="25.43" duration="107.00" routeLength="940.85" waitingTime="54.00" waitingCount="1" stopTime="0.00" timeLoss="67.02" rerouteNo="0" devices="tripinfo_60" vType="DEFAULT_VEHTYPE" speedFactor="0.92" vaporized=""/>
    <tripinfo id="63" depart="59.00" departLane="597602753#0_0" departPos="5.10" departSpeed="22.60" departDelay="0.00" arrival="160.00" arrivalLane="-597602756#0_0" arrivalPos="325.99" arrivalSpeed="22.43" duration="101.00" routeLength="1646.04" waitingTime="11.00" waitingCount="1" stopTime="0.00" timeLoss="26.42" rerouteNo="0" devices="tripinfo_63" vType="DEFAULT_VEHTYPE" speedFactor="1.02" vaporized=""/>
    <tripinfo id="52" depart="35.00" departLane="-260998164#3_0" departPos="5.10" departSpeed="26.66" departDelay="0.00" arrival="161.00" arrivalLane="918280984_0" arrivalPos="38.78" arrivalSpeed="12.41" duration="126.00" routeLength="1465.15" waitingTime="39.00" waitingCount="3" stopTime="0.00" timeLoss="66.82" rerouteNo="0" devices="tripinfo_52" vType="DEFAULT_VEHTYPE" speedFactor="0.96" vaporized=""/>
    <tripinfo id="40" depart="25.00" departLane="422685671#2_2" departPos="5.10" departSpeed="24.36" departDelay="0.00" arrival="163.00" arrivalLane="918280984_0" arrivalPos="38.78" arrivalSpeed="11.20" duration="138.00" routeLength="1069.78" waitingTime="62.00" waitingCount="3" stopTime="0.00" timeLoss="88.73" rerouteNo="0" devices="tripinfo_40" vType="DEFAULT_VEHTYPE" speedFactor="0.88" vaporized=""/>
    <tripinfo id="17" depart="11.00" departLane="105681660#12_0" departPos="5.10" departSpeed="20.80" departDelay="0.00" arrival="164.00" arrivalLane="15374898#0-AddedOffRampEdge_0" arrivalPos="100.00" arrivalSpeed="25.50" duration="153.00" routeLength="2308.55" waitingTime="6.00" waitingCount="1" stopTime="0.00" timeLoss="31.88" rerouteNo="0" devices="tripinfo_17" vType="DEFAULT_VEHTYPE" speedFactor="0.94" vaporized=""/>
    <tripinfo id="49" depart="32.00" departLane="105681660#12_0" departPos="5.10" departSpeed="22.74" departDelay="0.00" arrival="165.00" arrivalLane="918280984_0" arrivalPos="38.78" arrivalSpeed="13.32" duration="133.00" routeLength="1772.86" waitingTime="23.00" waitingCount="3" stopTime="0.00" timeLoss="54.56" rerouteNo="0" devices="tripinfo_49" vType="DEFAULT_VEHTYPE" speedFactor="1.02" vaporized=""/>
    <tripinfo id="54" depart="37.00" departLane="105681660#12_0" departPos="5.10" departSpeed="21.06" departDelay="0.00" arrival="167.00" arrivalLane="918280984_0" arrivalPos="38.78" arrivalSpeed="12.41" duration="130.00" routeLength="1772.86" waitingTime="15.00" waitingCount="3" stopTime="0.00" timeLoss="44.68" rerouteNo="0" devices="tripinfo_54" vType="DEFAULT_VEHTYPE" speedFactor="0.95" vaporized=""/>
    <tripinfo id="95" depart="94.00" departLane="318908683#0_0" departPos="5.10" departSpeed="8.48" departDelay="0.00" arrival="167.00" arrivalLane="260998164#0_0" arrivalPos="257.55" arrivalSpeed="27.76" duration="73.00" routeLength="939.98" waitingTime="23.00" waitingCount="1" stopTime="0.00" timeLoss="36.54" rerouteNo="0" devices="tripinfo_95" vType="DEFAULT_VEHTYPE" speedFactor="1.02" vaporized=""/>
    <tripinfo id="85" depart="80.00" departLane="918280985_0" departPos="5.10" departSpeed="10.50" departDelay="0.00" arrival="168.00" arrivalLane="15374898#0-AddedOffRampEdge_0" arrivalPos="100.00" arrivalSpeed="24.01" duration="88.00" routeLength="996.81" waitingTime="24.00" waitingCount="1" stopTime="0.00" timeLoss="41.90" rerouteNo="0" devices="tripinfo_85" vType="DEFAULT_VEHTYPE" speedFactor="0.87" vaporized=""/>
    <tripinfo id="57" depart="44.00" departLane="597602753#0_0" departPos="5.10" departSpeed="23.46" departDelay="0.00" arrival="169.00" arrivalLane="918280984_0" arrivalPos="38.78" arrivalSpeed="14.35" duration="125.00" routeLength="1540.95" waitingTime="23.00" waitingCount="3" stopTime="0.00" timeLoss="59.36" rerouteNo="0" devices="tripinfo_57" vType="DEFAULT_VEHTYPE" speedFactor="1.06" vaporized=""/>
    <tripinfo id="82" depart="77.00" departLane="318908683#0_0" departPos="5.10" departSpeed="12.51" departDelay="0.00" arrival="171.00" arrivalLane="918280984_0" arrivalPos="38.78" arrivalSpeed="12.55" duration="94.00" routeLength="693.58" waitingTime="38.00" waitingCount="2" stopTime="0.00" timeLoss="62.36" rerouteNo="0" devices="tripinfo_82" vType="DEFAULT_VEHTYPE" speedFactor="0.98" vaporized=""/>
    <tripinfo id="94" depart="93.00" departLane="105681660#12_0" departPos="5.10" departSpeed="22.94" departDelay="0.00" arrival="173.00" arrivalLane="-597602753#1_0" arrivalPos="143.59" arrivalSpeed="22.28" duration="80.00" routeLength="1380.56" waitingTime="8.00" waitingCount="1" stopTime="0.00" timeLoss="18.73" rerouteNo="0" devices="tripinfo_94" vType="DEFAULT_VEHTYPE" speedFactor="1.03" vaporized=""/>
    <tripinfo id="111" depart="119.00" departLane="918280985_0" departPos="5.10" departSpeed="1.89" departDelay="10.00" arrival="174.00" arrivalLane="15374898#0-AddedOffRampEdge_0" arrivalPos="100.00" arrivalSpeed="30.90" duration="55.00" routeLength="996.81" waitingTime="0.00" waitingCount="0" stopTime="0.00" timeLoss="19.77" rerouteNo="0" devices="tripinfo_111" vType="DEFAULT_VEHTYPE" speedFactor="1.13" vaporized=""/>
    <tripinfo id="48" depart="32.00" departLane="422685671#2_0" departPos="5.10" departSpeed="27.70" departDelay="0.00" arrival="179.00" arrivalLane="-597602756#0_0" arrivalPos="325.99" arrivalSpeed="21.57" duration="147.00" routeLength="1778.05" waitingTime="40.00" waitingCount="1" stopTime="0.00" timeLoss="67.61" rerouteNo="0" devices="tripinfo_48" vType="DEFAULT_VEHTYPE" speedFactor="1.00" vaporized=""/>
    <tripinfo id="56" depart="54.00" departLane="918280985_0" departPos="5.10" departSpeed="5.63" departDelay="12.00" arrival="179.00" arrivalLane="-597602753#1_0" arrivalPos="143.59" arrivalSpeed="19.47" duration="125.00" routeLength="1072.66" waitingTime="29.00" waitingCount="1" stopTime="0.00" timeLoss="46.52" rerouteNo="0" devices="tripinfo_56" vType="DEFAULT_VEHTYPE" speedFactor="0.93" vaporized=""/>
    <tripinfo id="46" depart="31.00" departLane="422685671#2_0" departPos="5.10" departSpeed="24.97" departDelay="0.00" arrival="183.00" arrivalLane="-105681660#20_0" arrivalPos="806.12" arrivalSpeed="18.92" duration="152.00" routeLength="1813.05" waitingTime="41.00" waitingCount="1" stopTime="0.00" timeLoss="62.68" rerouteNo="0" devices="tripinfo_46" vType="DEFAULT_VEHTYPE" speedFactor="0.90" vaporized=""/>
    <tripinfo id="59" depart="50.00" departLane="422685671#2_0" departPos="5.10" departSpeed="28.68" departDelay="0.00" arrival="184.00" arrivalLane="-597602756#0_0" arrivalPos="325.99" arrivalSpeed="22.27" duration="134.00" routeLength="1778.05" waitingTime="29.00" waitingCount="1" stopTime="0.00" timeLoss="58.19" rerouteNo="0" devices="tripinfo_59" vType="DEFAULT_VEHTYPE" speedFactor="1.03" vaporized=""/>
    <tripinfo id="75" depart="71.00" departLane="422688973_1" departPos="5.10" departSpeed="10.42" departDelay="0.00" arrival="184.00" arrivalLane="-105681660#20_0" arrivalPos="806.12" arrivalSpeed="20.98" duration="113.00" routeLength="1352.23" waitingTime="20.00" waitingCount="2" stopTime="0.00" timeLoss="44.60" rerouteNo="0" devices="tripinfo_75" vType="DEFAULT_VEHTYPE" speedFactor="1.10" vaporized=""/>
    <tripinfo id="79" depart="75.00" departLane="422688973_1" departPos="5.10" departSpeed="12.05" departDelay="0.00" arrival="186.00" arrivalLane="-105681660#20_0" arrivalPos="806.12" arrivalSpeed="22.87" duration="111.00" routeLength="1352.23" waitingTime="16.00" waitingCount="2" stopTime="0.00" timeLoss="40.97" rerouteNo="0" devices="tripinfo_79" vType="DEFAULT_VEHTYPE" speedFactor="1.08" vaporized=""/>
    <tripinfo id="68" depart="64.00" departLane="918280985_0" departPos="5.10" departSpeed="13.09" departDelay="0.00" arrival="190.00" arrivalLane="-597602753#1_0" arrivalPos="143.59" arrivalSpeed="20.85" duration="126.00" routeLength="1072.66" waitingTime="36.00" waitingCount="1" stopTime="0.00" timeLoss="48.27" rerouteNo="0" devices="tripinfo_68" vType="DEFAULT_VEHTYPE" speedFactor="0.94" vaporized=""/>
    <tripinfo id="118" depart="118.00" departLane="422688973_1" departPos="5.10" departSpeed="13.62" departDelay="0.00" arrival="191.00" arrivalLane="15374898#0-AddedOffRampEdge_0" arrivalPos="100.00" arrivalSpeed="25.32" duration="73.00" routeLength="1006.54" waitingTime="14.00" waitingCount="1" stopTime="0.00" timeLoss="32.71" rerouteNo="0" devices="tripinfo_118" vType="DEFAULT_VEHTYPE" speedFactor="0.92" vaporized=""/>
    <tripinfo id="55" depart="41.00" departLane="422685671#2_0" departPos="5.10" departSpeed="28.39" departDelay="0.00" arrival="192.00" arrivalLane="-597602753#1_0" arrivalPos="143.59" arrivalSpeed="22.69" duration="151.00" routeLength="1584.34" waitingTime="47.00" waitingCount="2" stopTime="0.00" timeLoss="81.96" rerouteNo="0" devices="tripinfo_55" vType="DEFAULT_VEHTYPE" speedFactor="1.02" vaporized=""/>
    <tripinfo id="113" depart="111.00" departLane="597602753#0_0" departPos="5.10" departSpeed="21.45" departDelay="0.00" arrival="192.00" arrivalLane="918280984_0" arrivalPos="38.78" arrivalSpeed="13.06" duration="81.00" routeLength="1061.00" waitingTime="0.00" waitingCount="0" stopTime="0.00" timeLoss="6.20" rerouteNo="0" devices="tripinfo_113" vType="DEFAULT_VEHTYPE" speedFactor="0.97" vaporized=""/>
    <tripinfo id="80" depart="75.00" departLane="318908683#0_0" departPos="5.10" departSpeed="14.90" departDelay="0.00" arrival="193.00" arrivalLane="-597602753#1_0" arrivalPos="143.59" arrivalSpeed="23.70" duration="118.00" routeLength="1208.14" waitingTime="37.00" waitingCount="1" stopTime="0.00" timeLoss="65.76" rerouteNo="0" devices="tripinfo_80" vType="DEFAULT_VEHTYPE" speedFactor="1.07" vaporized=""/>
    <tripinfo id="30" depart="20.00" departLane="918280985_0" departPos="5.10" departSpeed="10.50" departDelay="0.00" arrival="194.00" arrivalLane="260998164#0_0" arrivalPos="257.55" arrivalSpeed="25.22" duration="174.00" routeLength="1460.33" waitingTime="90.00" waitingCount="2" stopTime="0.00" timeLoss="113.45" rerouteNo="0" devices="tripinfo_30" vType="DEFAULT_VEHTYPE" speedFactor="0.94" vaporized=""/>
    <tripinfo id="31" depart="21.00" departLane="918280985_0" departPos="5.10" departSpeed="5.88" departDelay="0.00" arrival="195.00" arrivalLane="260998164#0_0" arrivalPos="257.55" arrivalSpeed="28.23" duration="174.00" routeLength="1460.33" waitingTime="90.00" waitingCount="2" stopTime="0.00" timeLoss="118.93" rerouteNo="0" devices="tripinfo_31" vType="DEFAULT_VEHTYPE" speedFactor="1.03" vaporized=""/>
    <tripinfo id="72" depart="69.00" departLane="318908683#0_0" departPos="5.10" departSpeed="14.68" departDelay="0.00" arrival="197.00" arrivalLane="-597602756#0_0" arrivalPos="325.99" arrivalSpeed="23.23" duration="128.00" routeLength="1401.85" waitingTime="42.00" waitingCount="1" stopTime="0.00" timeLoss="65.33" rerouteNo="0" devices="tripinfo_72" vType="DEFAULT_VEHTYPE" speedFactor="1.06" vaporized=""/>
    <tripinfo id="51" depart="34.00" departLane="422685671#2_0" departPos="5.10" departSpeed="27.42" departDelay="0.00" arrival="200.00" arrivalLane="-105681660#20_0" arrivalPos="806.12" arrivalSpeed="20.97" duration="166.00" routeLength="1813.05" waitingTime="52.00" waitingCount="2" stopTime="0.00" timeLoss="85.09" rerouteNo="0" devices="tripinfo_51" vType="DEFAULT_VEHTYPE" speedFactor="0.99" vaporized=""/>
    <tripinfo id="110" depart="107.00" departLane="318908683#0_0" departPos="5.10" departSpeed="4.73" departDelay="0.00" arrival="202.00" arrivalLane="-597602756#0_0" arrivalPos="325.99" arrivalSpeed="23.95" duration="95.00" routeLength="1401.85" waitingTime="14.00" waitingCount="1" stopTime="0.00" timeLoss="36.29" rerouteNo="0" devices="tripinfo_110" vType="DEFAULT_VEHTYPE" speedFactor="1.11" vaporized=""/>
    <tripinfo id="109" depart="116.00" departLane="918280985_0" departPos="5.10" departSpeed="1.21" departDelay="9.00" arrival="202.00" arrivalLane="-597602753#1_0" arrivalPos="143.59" arrivalSpeed="22.26" duration="86.00" routeLength="1072.66" waitingTime="0.00" waitingCount="0" stopTime="0.00" timeLoss="13.74" rerouteNo="0" devices="tripinfo_109" vType="DEFAULT_VEHTYPE" speedFactor="1.01" vaporized=""/>
    <tripinfo id="115" depart="113.00" departLane="597602753#0_0" departPos="5.10" departSpeed="23.04" departDelay="0.00" arrival="204.00" arrivalLane="422688976#1_0" arrivalPos="294.40" arrivalSpeed="28.44" duration="91.00" routeLength="1286.53" waitingTime="0.00" waitingCount="0" stopTime="0.00" timeLoss="14.53" rerouteNo="0" devices="tripinfo_115" vType="DEFAULT_VEHTYPE" speedFactor="1.04" vaporized=""/>
    <tripinfo id="36" depart="45.00" departLane="918280985_0" departPos="5.10" departSpeed="0.16" departDelay="21.00" arrival="207.00" arrivalLane="260998164#0_0" arrivalPos="257.55" arrivalSpeed="21.35" duration="162.00" routeLength="1460.33" waitingTime="70.00" waitingCount="1" stopTime="0.00" timeLoss="88.83" rerouteNo="0" devices="tripinfo_36" vType="DEFAULT_VEHTYPE" speedFactor="0.77" vaporized=""/>