<?xml version="1.0" encoding="UTF-8"?>

<!-- generated on 2023-04-28 20:17:35 by Eclipse SUMO sumo Version 1.16.0
<configuration xmlns:xsi="http://www.w3.org/2001/XMLSchema-instance" xsi:noNamespaceSchemaLocation="http://sumo.dlr.de/xsd/sumoConfiguration.xsd">

    <input>
        <net-file value="C:\Users\Local_Man\Desktop\Stolen%20Music\school%20stuff%20for%20college\Semester%2015%20(UH%20Graduate%20School)\COSC%206364%20Nikolaos\SUMO_Project\COSC6364_Project\configurations\maps\Braess_Homebrew_fixed1.net.xml"/>
        <route-files value="./configurations/Rounds/Braess_Homebrew_fixed1.net.xml-test-0/Macroscopic_DUE/011/Trips_File_011.rou.xml"/>
    </input>

    <output>
        <summary-output value="./configurations/Rounds/Braess_Homebrew_fixed1.net.xml-test-0/Macroscopic_DUE/011/summary.xml"/>
        <tripinfo-output value="./configurations/Rounds/Braess_Homebrew_fixed1.net.xml-test-0/Macroscopic_DUE/011/trips.trips.xml"/>
        <statistic-output value="./configurations/Rounds/Braess_Homebrew_fixed1.net.xml-test-0/Macroscopic_DUE/011/stats_output.xml"/>
    </output>

    <time>
        <begin value="0"/>
    </time>

    <report>
        <log value="./configurations/Rounds/Braess_Homebrew_fixed1.net.xml-test-0/Macroscopic_DUE/011/log.sumo.log"/>
        <no-step-log value="true"/>
    </report>

    <gui_only>
        <quit-on-end value="true"/>
    </gui_only>

</configuration>
-->

<tripinfos xmlns:xsi="http://www.w3.org/2001/XMLSchema-instance" xsi:noNamespaceSchemaLocation="http://sumo.dlr.de/xsd/tripinfo_file.xsd">
    <tripinfo id="2" depart="0.00" departLane="E0_0" departPos="5.10" departSpeed="19.50" departDelay="0.00" arrival="94.00" arrivalLane="E3_0" arrivalPos="90.46" arrivalSpeed="28.43" duration="94.00" routeLength="1314.99" waitingTime="0.00" waitingCount="0" stopTime="0.00" timeLoss="9.90" rerouteNo="0" devices="tripinfo_2" vType="DEFAULT_VEHTYPE" speedFactor="0.98" vaporized=""/>
    <tripinfo id="4" depart="2.00" departLane="E0_0" departPos="5.10" departSpeed="14.44" departDelay="1.00" arrival="96.00" arrivalLane="E3_0" arrivalPos="90.46" arrivalSpeed="31.51" duration="94.00" routeLength="1314.99" waitingTime="0.00" waitingCount="0" stopTime="0.00" timeLoss="25.07" rerouteNo="0" devices="tripinfo_4" vType="DEFAULT_VEHTYPE" speedFactor="1.20" vaporized=""/>
    <tripinfo id="5" depart="3.00" departLane="E0_0" departPos="5.10" departSpeed="10.75" departDelay="2.00" arrival="97.00" arrivalLane="E3_0" arrivalPos="90.46" arrivalSpeed="31.20" duration="94.00" routeLength="1314.99" waitingTime="0.00" waitingCount="0" stopTime="0.00" timeLoss="15.43" rerouteNo="0" devices="tripinfo_5" vType="DEFAULT_VEHTYPE" speedFactor="1.05" vaporized=""/>
    <tripinfo id="7" depart="5.00" departLane="E0_0" departPos="5.10" departSpeed="3.06" departDelay="2.00" arrival="111.00" arrivalLane="E3_0" arrivalPos="90.46" arrivalSpeed="27.00" duration="106.00" routeLength="1314.99" waitingTime="0.00" waitingCount="0" stopTime="0.00" timeLoss="17.93" rerouteNo="0" devices="tripinfo_7" vType="DEFAULT_VEHTYPE" speedFactor="0.94" vaporized=""/>
    <tripinfo id="9" depart="10.00" departLane="E0_0" departPos="5.10" departSpeed="5.15" departDelay="3.00" arrival="112.00" arrivalLane="E3_0" arrivalPos="90.46" arrivalSpeed="29.74" duration="102.00" routeLength="1314.99" waitingTime="0.00" waitingCount="0" stopTime="0.00" timeLoss="26.63" rerouteNo="0" devices="tripinfo_9" vType="DEFAULT_VEHTYPE" speedFactor="1.09" vaporized=""/>
    <tripinfo id="10" depart="12.00" departLane="E0_0" departPos="5.10" departSpeed="2.48" departDelay="5.00" arrival="120.00" arrivalLane="E3_0" arrivalPos="90.46" arrivalSpeed="26.75" duration="108.00" routeLength="1314.99" waitingTime="0.00" waitingCount="0" stopTime="0.00" timeLoss="18.94" rerouteNo="0" devices="tripinfo_10" vType="DEFAULT_VEHTYPE" speedFactor="0.92" vaporized=""/>
    <tripinfo id="13" depart="20.00" departLane="E0_0" departPos="5.10" departSpeed="7.42" departDelay="10.00" arrival="125.00" arrivalLane="E3_0" arrivalPos="90.46" arrivalSpeed="26.54" duration="105.00" routeLength="1314.99" waitingTime="0.00" waitingCount="0" stopTime="0.00" timeLoss="16.23" rerouteNo="0" devices="tripinfo_13" vType="DEFAULT_VEHTYPE" speedFactor="0.93" vaporized=""/>
    <tripinfo id="15" depart="24.00" departLane="E0_0" departPos="5.10" departSpeed="7.93" departDelay="11.00" arrival="130.00" arrivalLane="E3_0" arrivalPos="90.46" arrivalSpeed="26.98" duration="106.00" routeLength="1314.99" waitingTime="0.00" waitingCount="0" stopTime="0.00" timeLoss="18.41" rerouteNo="0" devices="tripinfo_15" vType="DEFAULT_VEHTYPE" speedFactor="0.94" vaporized=""/>
    <tripinfo id="16" depart="25.00" departLane="E0_0" departPos="5.10" departSpeed="3.59" departDelay="12.00" arrival="131.00" arrivalLane="E3_0" arrivalPos="90.46" arrivalSpeed="29.51" duration="106.00" routeLength="1314.99" waitingTime="0.00" waitingCount="0" stopTime="0.00" timeLoss="30.49" rerouteNo="0" devices="tripinfo_16" vType="DEFAULT_VEHTYPE" speedFactor="1.08" vaporized=""/>
    <tripinfo id="17" depart="27.00" departLane="E0_0" departPos="5.10" departSpeed="3.19" departDelay="12.00" arrival="133.00" arrivalLane="E3_0" arrivalPos="90.46" arrivalSpeed="29.51" duration="106.00" routeLength="1314.99" waitingTime="0.00" waitingCount="0" stopTime="0.00" timeLoss="24.50" rerouteNo="0" devices="tripinfo_17" vType="DEFAULT_VEHTYPE" speedFactor="1.01" vaporized=""/>
    <tripinfo id="18" depart="29.00" departLane="E0_0" departPos="5.10" departSpeed="1.05" departDelay="13.00" arrival="134.00" arrivalLane="E3_0" arrivalPos="90.46" arrivalSpeed="30.76" duration="105.00" routeLength="1314.99" waitingTime="0.00" waitingCount="0" stopTime="0.00" timeLoss="25.33" rerouteNo="0" devices="tripinfo_18" vType="DEFAULT_VEHTYPE" speedFactor="1.03" vaporized=""/>
    <tripinfo id="19" depart="33.00" departLane="E0_0" departPos="5.10" departSpeed="6.09" departDelay="17.00" arrival="143.00" arrivalLane="E3_0" arrivalPos="90.46" arrivalSpeed="25.95" duration="110.00" routeLength="1314.99" waitingTime="0.00" waitingCount="0" stopTime="0.00" timeLoss="17.86" rerouteNo="0" devices="tripinfo_19" vType="DEFAULT_VEHTYPE" speedFactor="0.89" vaporized=""/>
    <tripinfo id="25" depart="45.00" departLane="E0_0" departPos="5.10" departSpeed="6.21" departDelay="23.00" arrival="145.00" arrivalLane="E3_0" arrivalPos="90.46" arrivalSpeed="30.88" duration="100.00" routeLength="1314.99" waitingTime="0.00" waitingCount="0" stopTime="0.00" timeLoss="28.43" rerouteNo="0" devices="tripinfo_25" vType="DEFAULT_VEHTYPE" speedFactor="1.15" vaporized=""/>
    <tripinfo id="26" depart="47.00" departLane="E0_0" departPos="5.10" departSpeed="6.05" departDelay="25.00" arrival="146.00" arrivalLane="E3_0" arrivalPos="90.46" arrivalSpeed="30.36" duration="99.00" routeLength="1314.99" waitingTime="0.00" waitingCount="0" stopTime="0.00" timeLoss="25.43" rerouteNo="0" devices="tripinfo_26" vType="DEFAULT_VEHTYPE" speedFactor="1.12" vaporized=""/>
    <tripinfo id="27" depart="49.00" departLane="E0_0" departPos="5.10" departSpeed="6.90" departDelay="26.00" arrival="153.00" arrivalLane="E3_0" arrivalPos="90.46" arrivalSpeed="29.52" duration="104.00" routeLength="1314.99" waitingTime="0.00" waitingCount="0" stopTime="0.00" timeLoss="20.86" rerouteNo="0" devices="tripinfo_27" vType="DEFAULT_VEHTYPE" speedFactor="0.99" vaporized=""/>
    <tripinfo id="29" depart="53.00" departLane="E0_0" departPos="5.10" departSpeed="0.58" departDelay="28.00" arrival="155.00" arrivalLane="E3_0" arrivalPos="90.46" arrivalSpeed="30.05" duration="102.00" routeLength="1314.99" waitingTime="0.00" waitingCount="0" stopTime="0.00" timeLoss="21.52" rerouteNo="0" devices="tripinfo_29" vType="DEFAULT_VEHTYPE" speedFactor="1.02" vaporized=""/>
    <tripinfo id="30" depart="56.00" departLane="E0_0" departPos="5.10" departSpeed="1.03" departDelay="31.00" arrival="163.00" arrivalLane="E3_0" arrivalPos="90.46" arrivalSpeed="27.98" duration="107.00" routeLength="1314.99" waitingTime="0.00" waitingCount="0" stopTime="0.00" timeLoss="19.82" rerouteNo="0" devices="tripinfo_30" vType="DEFAULT_VEHTYPE" speedFactor="0.94" vaporized=""/>
    <tripinfo id="31" depart="59.00" departLane="E0_0" departPos="5.10" departSpeed="0.12" departDelay="32.00" arrival="165.00" arrivalLane="E3_0" arrivalPos="90.46" arrivalSpeed="30.57" duration="106.00" routeLength="1314.99" waitingTime="0.00" waitingCount="0" stopTime="0.00" timeLoss="30.82" rerouteNo="0" devices="tripinfo_31" vType="DEFAULT_VEHTYPE" speedFactor="1.10" vaporized=""/>
    <tripinfo id="3" depart="1.00" departLane="E0_0" departPos="5.10" departSpeed="16.96" departDelay="1.00" arrival="174.00" arrivalLane="E3_0" arrivalPos="90.46" arrivalSpeed="24.74" duration="173.00" routeLength="1317.38" waitingTime="70.00" waitingCount="1" stopTime="0.00" timeLoss="93.72" rerouteNo="0" devices="tripinfo_3" vType="DEFAULT_VEHTYPE" speedFactor="1.08" vaporized=""/>
    <tripinfo id="32" depart="63.00" departLane="E0_0" departPos="5.10" departSpeed="6.92" departDelay="36.00" arrival="179.00" arrivalLane="E3_0" arrivalPos="90.46" arrivalSpeed="24.97" duration="116.00" routeLength="1314.99" waitingTime="0.00" waitingCount="0" stopTime="0.00" timeLoss="17.31" rerouteNo="0" devices="tripinfo_32" vType="DEFAULT_VEHTYPE" speedFactor="0.83" vaporized=""/>
    <tripinfo id="34" depart="67.00" departLane="E0_0" departPos="5.10" departSpeed="7.21" departDelay="38.00" arrival="180.00" arrivalLane="E3_0" arrivalPos="90.46" arrivalSpeed="26.75" duration="113.00" routeLength="1314.99" waitingTime="0.00" waitingCount="0" stopTime="0.00" timeLoss="35.94" rerouteNo="0" devices="tripinfo_34" vType="DEFAULT_VEHTYPE" speedFactor="1.07" vaporized=""/>
    <tripinfo id="6" depart="4.00" departLane="E0_0" departPos="5.10" departSpeed="7.88" departDelay="3.00" arrival="192.00" arrivalLane="E3_0" arrivalPos="90.46" arrivalSpeed="25.80" duration="188.00" routeLength="1317.38" waitingTime="77.00" waitingCount="2" stopTime="0.00" timeLoss="108.46" rerouteNo="0" devices="tripinfo_6" vType="DEFAULT_VEHTYPE" speedFactor="1.08" vaporized=""/>
    <tripinfo id="36" depart="71.00" departLane="E0_0" departPos="5.10" departSpeed="7.98" departDelay="42.00" arrival="195.00" arrivalLane="E3_0" arrivalPos="90.46" arrivalSpeed="22.23" duration="124.00" routeLength="1314.99" waitingTime="0.00" waitingCount="0" stopTime="0.00" timeLoss="17.98" rerouteNo="0" devices="tripinfo_36" vType="DEFAULT_VEHTYPE" speedFactor="0.77" vaporized=""/>
    <tripinfo id="38" depart="74.00" departLane="E0_0" departPos="5.10" departSpeed="0.86" departDelay="43.00" arrival="197.00" arrivalLane="E3_0" arrivalPos="90.46" arrivalSpeed="25.85" duration="123.00" routeLength="1314.99" waitingTime="0.00" waitingCount="0" stopTime="0.00" timeLoss="42.42" rerouteNo="0" devices="tripinfo_38" vType="DEFAULT_VEHTYPE" speedFactor="1.02" vaporized=""/>
    <tripinfo id="39" depart="78.00" departLane="E0_0" departPos="5.10" departSpeed="5.97" departDelay="47.00" arrival="198.00" arrivalLane="E3_0" arrivalPos="90.46" arrivalSpeed="25.58" duration="120.00" routeLength="1314.99" waitingTime="0.00" waitingCount="0" stopTime="0.00" timeLoss="26.44" rerouteNo="0" devices="tripinfo_39" vType="DEFAULT_VEHTYPE" speedFactor="0.88" vaporized=""/>
    <tripinfo id="40" depart="80.00" departLane="E0_0" departPos="5.10" departSpeed="6.97" departDelay="47.00" arrival="200.00" arrivalLane="E3_0" arrivalPos="90.46" arrivalSpeed="26.98" duration="120.00" routeLength="1314.99" waitingTime="0.00" waitingCount="0" stopTime="0.00" timeLoss="42.38" rerouteNo="0" devices="tripinfo_40" vType="DEFAULT_VEHTYPE" speedFactor="1.06" vaporized=""/>
    <tripinfo id="42" depart="84.00" departLane="E0_0" departPos="5.10" departSpeed="6.59" departDelay="49.00" arrival="201.00" arrivalLane="E3_0" arrivalPos="90.46" arrivalSpeed="25.10" duration="117.00" routeLength="1314.99" waitingTime="0.00" waitingCount="0" stopTime="0.00" timeLoss="38.70" rerouteNo="0" devices="tripinfo_42" vType="DEFAULT_VEHTYPE" speedFactor="1.05" vaporized=""/>
    <tripinfo id="43" depart="86.00" departLane="E0_0" departPos="5.10" departSpeed="5.64" departDelay="51.00" arrival="203.00" arrivalLane="E3_0" arrivalPos="90.46" arrivalSpeed="28.67" duration="117.00" routeLength="1314.99" waitingTime="0.00" waitingCount="0" stopTime="0.00" timeLoss="34.59" rerouteNo="0" devices="tripinfo_43" vType="DEFAULT_VEHTYPE" speedFactor="1.00" vaporized=""/>
    <tripinfo id="44" depart="88.00" departLane="E0_0" departPos="5.10" departSpeed="4.50" departDelay="53.00" arrival="204.00" arrivalLane="E3_0" arrivalPos="90.46" arrivalSpeed="28.35" duration="116.00" routeLength="1314.99" waitingTime="0.00" waitingCount="0" stopTime="0.00" timeLoss="41.32" rerouteNo="0" devices="tripinfo_44" vType="DEFAULT_VEHTYPE" speedFactor="1.10" vaporized=""/>
    <tripinfo id="45" depart="90.00" departLane="E0_0" departPos="5.10" departSpeed="1.06" departDelay="54.00" arrival="206.00" arrivalLane="E3_0" arrivalPos="90.46" arrivalSpeed="26.72" duration="116.00" routeLength="1314.99" waitingTime="0.00" waitingCount="0" stopTime="0.00" timeLoss="24.40" rerouteNo="0" devices="tripinfo_45" vType="DEFAULT_VEHTYPE" speedFactor="0.90" vaporized=""/>
    <tripinfo id="46" depart="94.00" departLane="E0_0" departPos="5.10" departSpeed="4.92" departDelay="57.00" arrival="207.00" arrivalLane="E3_0" arrivalPos="90.46" arrivalSpeed="28.42" duration="113.00" routeLength="1314.99" waitingTime="0.00" waitingCount="0" stopTime="0.00" timeLoss="27.79" rerouteNo="0" devices="tripinfo_46" vType="DEFAULT_VEHTYPE" speedFactor="0.96" vaporized=""/>
    <tripinfo id="50" depart="103.00" departLane="E0_0" departPos="5.10" departSpeed="5.95" departDelay="63.00" arrival="208.00" arrivalLane="E3_0" arrivalPos="90.46" arrivalSpeed="28.73" duration="105.00" routeLength="1314.99" waitingTime="0.00" waitingCount="0" stopTime="0.00" timeLoss="22.92" rerouteNo="0" devices="tripinfo_50" vType="DEFAULT_VEHTYPE" speedFactor="1.00" vaporized=""/>
    <tripinfo id="51" depart="105.00" departLane="E0_0" departPos="5.10" departSpeed="6.03" departDelay="64.00" arrival="210.00" arrivalLane="E3_0" arrivalPos="90.46" arrivalSpeed="29.15" duration="105.00" routeLength="1314.99" waitingTime="0.00" waitingCount="0" stopTime="0.00" timeLoss="21.72" rerouteNo="0" devices="tripinfo_51" vType="DEFAULT_VEHTYPE" speedFactor="0.99" vaporized=""/>
    <tripinfo id="8" depart="8.00" departLane="E0_0" departPos="5.10" departSpeed="5.58" departDelay="2.00" arrival="220.00" arrivalLane="E3_0" arrivalPos="90.46" arrivalSpeed="23.70" duration="212.00" routeLength="1317.38" waitingTime="91.00" waitingCount="3" stopTime="0.00" timeLoss="127.36" rerouteNo="0" devices="tripinfo_8" vType="DEFAULT_VEHTYPE" speedFactor="1.02" vaporized=""/>
    <tripinfo id="53" depart="109.00" departLane="E0_0" departPos="5.10" departSpeed="2.18" departDelay="66.00" arrival="222.00" arrivalLane="E3_0" arrivalPos="90.46" arrivalSpeed="26.58" duration="113.00" routeLength="1314.99" waitingTime="0.00" waitingCount="0" stopTime="0.00" timeLoss="22.73" rerouteNo="0" devices="tripinfo_53" vType="DEFAULT_VEHTYPE" speedFactor="0.91" vaporized=""/>
    <tripinfo id="54" depart="112.00" departLane="E0_0" departPos="5.10" departSpeed="2.28" departDelay="69.00" arrival="224.00" arrivalLane="E3_0" arrivalPos="90.46" arrivalSpeed="27.71" duration="112.00" routeLength="1314.99" waitingTime="0.00" waitingCount="0" stopTime="0.00" timeLoss="25.06" rerouteNo="0" devices="tripinfo_54" vType="DEFAULT_VEHTYPE" speedFactor="0.95" vaporized=""/>
    <tripinfo id="56" depart="117.00" departLane="E0_0" departPos="5.10" departSpeed="0.15" departDelay="73.00" arrival="228.00" arrivalLane="E3_0" arrivalPos="90.46" arrivalSpeed="26.55" duration="111.00" routeLength="1314.99" waitingTime="0.00" waitingCount="0" stopTime="0.00" timeLoss="22.09" rerouteNo="0" devices="tripinfo_56" vType="DEFAULT_VEHTYPE" speedFactor="0.93" vaporized=""/>
    <tripinfo id="62" depart="133.00" departLane="E0_0" departPos="5.10" departSpeed="4.62" departDelay="82.00" arrival="243.00" arrivalLane="E3_0" arrivalPos="90.46" arrivalSpeed="26.18" duration="110.00" routeLength="1314.99" waitingTime="0.00" waitingCount="0" stopTime="0.00" timeLoss="17.95" rerouteNo="0" devices="tripinfo_62" vType="DEFAULT_VEHTYPE" speedFactor="0.90" vaporized=""/>
    <tripinfo id="64" depart="137.00" departLane="E0_0" departPos="5.10" departSpeed="2.82" departDelay="83.00" arrival="244.00" arrivalLane="E3_0" arrivalPos="90.46" arrivalSpeed="28.79" duration="107.00" routeLength="1314.99" waitingTime="0.00" waitingCount="0" stopTime="0.00" timeLoss="30.87" rerouteNo="0" devices="tripinfo_64" vType="DEFAULT_VEHTYPE" speedFactor="1.08" vaporized=""/>
    <tripinfo id="65" depart="140.00" departLane="E0_0" departPos="5.10" departSpeed="5.03" departDelay="86.00" arrival="246.00" arrivalLane="E3_0" arrivalPos="90.46" arrivalSpeed="28.90" duration="106.00" routeLength="1314.99" waitingTime="0.00" waitingCount="0" stopTime="0.00" timeLoss="21.52" rerouteNo="0" devices="tripinfo_65" vType="DEFAULT_VEHTYPE" speedFactor="0.98" vaporized=""/>
    <tripinfo id="66" depart="142.00" departLane="E0_0" departPos="5.10" departSpeed="5.90" departDelay="88.00" arrival="247.00" arrivalLane="E3_0" arrivalPos="90.46" arrivalSpeed="28.62" duration="105.00" routeLength="1314.99" waitingTime="0.00" waitingCount="0" stopTime="0.00" timeLoss="21.10" rerouteNo="0" devices="tripinfo_66" vType="DEFAULT_VEHTYPE" speedFactor="0.98" vaporized=""/>
    <tripinfo id="68" depart="146.00" departLane="E0_0" departPos="5.10" departSpeed="3.75" departDelay="89.00" arrival="254.00" arrivalLane="E3_0" arrivalPos="90.46" arrivalSpeed="27.99" duration="108.00" routeLength="1314.99" waitingTime="0.00" waitingCount="0" stopTime="0.00" timeLoss="20.30" rerouteNo="0" devices="tripinfo_68" vType="DEFAULT_VEHTYPE" speedFactor="0.94" vaporized=""/>
    <tripinfo id="75" depart="162.00" departLane="E0_0" departPos="5.10" departSpeed="7.21" departDelay="90.00" arrival="257.00" arrivalLane="E3_0" arrivalPos="90.46" arrivalSpeed="31.86" duration="95.00" routeLength="1314.99" waitingTime="0.00" waitingCount="0" stopTime="0.00" timeLoss="20.43" rerouteNo="0" devices="tripinfo_75" vType="DEFAULT_VEHTYPE" speedFactor="1.10" vaporized=""/>
    <tripinfo id="76" depart="164.00" departLane="E0_0" departPos="5.10" departSpeed="4.83" departDelay="91.00" arrival="259.00" arrivalLane="E3_0" arrivalPos="90.46" arrivalSpeed="34.04" duration="95.00" routeLength="1314.99" waitingTime="0.00" waitingCount="0" stopTime="0.00" timeLoss="22.75" rerouteNo="0" devices="tripinfo_76" vType="DEFAULT_VEHTYPE" speedFactor="1.14" vaporized=""/>
    <tripinfo id="80" depart="175.00" departLane="E0_0" departPos="5.10" departSpeed="5.30" departDelay="101.00" arrival="269.00" arrivalLane="E3_0" arrivalPos="90.46" arrivalSpeed="31.05" duration="94.00" routeLength="1314.99" waitingTime="0.00" waitingCount="0" stopTime="0.00" timeLoss="17.19" rerouteNo="0" devices="tripinfo_80" vType="DEFAULT_VEHTYPE" speedFactor="1.08" vaporized=""/>
    <tripinfo id="83" depart="183.00" departLane="E0_0" departPos="5.10" departSpeed="6.33" departDelay="108.00" arrival="275.00" arrivalLane="E3_0" arrivalPos="90.46" arrivalSpeed="31.55" duration="92.00" routeLength="1314.99" waitingTime="0.00" waitingCount="0" stopTime="0.00" timeLoss="15.02" rerouteNo="0" devices="tripinfo_83" vType="DEFAULT_VEHTYPE" speedFactor="1.06" vaporized=""/>
    <tripinfo id="11" depart="15.00" departLane="E0_0" departPos="5.10" departSpeed="2.65" departDelay="5.00" arrival="285.00" arrivalLane="E3_0" arrivalPos="90.46" arrivalSpeed="23.79" duration="270.00" routeLength="1317.38" waitingTime="150.00" waitingCount="4" stopTime="0.00" timeLoss="193.68" rerouteNo="0" devices="tripinfo_11" vType="DEFAULT_VEHTYPE" speedFactor="1.12" vaporized=""/>
    <tripinfo id="86" depart="189.00" departLane="E0_0" departPos="5.10" departSpeed="8.44" departDelay="111.00" arrival="287.00" arrivalLane="E3_0" arrivalPos="90.46" arrivalSpeed="29.87" duration="98.00" routeLength="1314.99" waitingTime="0.00" waitingCount="0" stopTime="0.00" timeLoss="17.44" rerouteNo="0" devices="tripinfo_86" vType="DEFAULT_VEHTYPE" speedFactor="1.02" vaporized=""/>
    <tripinfo id="89" depart="194.00" departLane="E0_0" departPos="5.10" departSpeed="4.02" departDelay="113.00" arrival="289.00" arrivalLane="E3_0" arrivalPos="90.46" arrivalSpeed="33.83" duration="95.00" routeLength="1314.99" waitingTime="0.00" waitingCount="0" stopTime="0.00" timeLoss="24.57" rerouteNo="0" devices="tripinfo_89" vType="DEFAULT_VEHTYPE" speedFactor="1.18" vaporized=""/>
    <tripinfo id="92" depart="201.00" departLane="E0_0" departPos="5.10" departSpeed="4.75" departDelay="120.00" arrival="301.00" arrivalLane="E3_0" arrivalPos="90.46" arrivalSpeed="28.25" duration="100.00" routeLength="1314.99" waitingTime="0.00" waitingCount="0" stopTime="0.00" timeLoss="16.03" rerouteNo="0" devices="tripinfo_92" vType="DEFAULT_VEHTYPE" speedFactor="0.98" vaporized=""/>
    <tripinfo id="93" depart="203.00" departLane="E0_0" departPos="5.10" departSpeed="3.29" departDelay="119.00" arrival="308.00" arrivalLane="E3_0" arrivalPos="90.46" arrivalSpeed="27.75" duration="105.00" routeLength="1314.99" waitingTime="0.00" waitingCount="0" stopTime="0.00" timeLoss="17.70" rerouteNo="0" devices="tripinfo_93" vType="DEFAULT_VEHTYPE" speedFactor="0.94" vaporized=""/>
    <tripinfo id="94" depart="205.00" departLane="E0_0" departPos="5.10" departSpeed="1.61" departDelay="120.00" arrival="309.00" arrivalLane="E3_0" arrivalPos="90.46" arrivalSpeed="28.67" duration="104.00" routeLength="1314.99" waitingTime="0.00" waitingCount="0" stopTime="0.00" timeLoss="25.10" rerouteNo="0" devices="tripinfo_94" vType="DEFAULT_VEHTYPE" speedFactor="1.03" vaporized=""/>
    <tripinfo id="12" depart="18.00" departLane="E0_0" departPos="5.10" departSpeed="6.35" departDelay="8.00" arrival="319.00" arrivalLane="E3_0" arrivalPos="90.46" arrivalSpeed="24.55" duration="301.00" routeLength="1317.38" waitingTime="161.00" waitingCount="5" stopTime="0.00" timeLoss="205.66" rerouteNo="0" devices="tripinfo_12" vType="DEFAULT_VEHTYPE" speedFactor="0.90" vaporized=""/>
    <tripinfo id="96" depart="211.00" departLane="E0_0" departPos="5.10" departSpeed="5.02" departDelay="123.00" arrival="321.00" arrivalLane="E3_0" arrivalPos="90.46" arrivalSpeed="26.07" duration="110.00" routeLength="1314.99" waitingTime="0.00" waitingCount="0" stopTime="0.00" timeLoss="16.87" rerouteNo="0" devices="tripinfo_96" vType="DEFAULT_VEHTYPE" speedFactor="0.89" vaporized=""/>
    <tripinfo id="100" depart="220.00" departLane="E0_0" departPos="5.10" departSpeed="1.37" departDelay="128.00" arrival="322.00" arrivalLane="E3_0" arrivalPos="90.46" arrivalSpeed="28.46" duration="102.00" routeLength="1314.99" waitingTime="0.00" waitingCount="0" stopTime="0.00" timeLoss="27.34" rerouteNo="0" devices="tripinfo_100" vType="DEFAULT_VEHTYPE" speedFactor="1.10" vaporized=""/>
    <tripinfo id="102" depart="226.00" departLane="E0_0" departPos="5.10" departSpeed="4.30" departDelay="133.00" arrival="338.00" arrivalLane="E3_0" arrivalPos="90.46" arrivalSpeed="24.12" duration="112.00" routeLength="1314.99" waitingTime="0.00" waitingCount="0" stopTime="0.00" timeLoss="14.17" rerouteNo="0" devices="tripinfo_102" vType="DEFAULT_VEHTYPE" speedFactor="0.84" vaporized=""/>
    <tripinfo id="104" depart="230.00" departLane="E0_0" departPos="5.10" departSpeed="0.76" departDelay="136.00" arrival="340.00" arrivalLane="E3_0" arrivalPos="90.46" arrivalSpeed="29.28" duration="110.00" routeLength="1314.99" waitingTime="0.00" waitingCount="0" stopTime="0.00" timeLoss="30.31" rerouteNo="0" devices="tripinfo_104" vType="DEFAULT_VEHTYPE" speedFactor="1.04" vaporized=""/>
    <tripinfo id="106" depart="236.00" departLane="E0_0" departPos="5.10" departSpeed="5.57" departDelay="140.00" arrival="341.00" arrivalLane="E3_0" arrivalPos="90.46" arrivalSpeed="28.07" duration="105.00" routeLength="1314.99" waitingTime="0.00" waitingCount="0" stopTime="0.00" timeLoss="18.81" rerouteNo="0" devices="tripinfo_106" vType="DEFAULT_VEHTYPE" speedFactor="0.95" vaporized=""/>
    <tripinfo id="110" depart="244.00" departLane="E0_0" departPos="5.10" departSpeed="3.23" departDelay="143.00" arrival="343.00" arrivalLane="E3_0" arrivalPos="90.46" arrivalSpeed="29.56" duration="99.00" routeLength="1314.99" waitingTime="0.00" waitingCount="0" stopTime="0.00" timeLoss="17.82" rerouteNo="0" devices="tripinfo_110" vType="DEFAULT_VEHTYPE" speedFactor="1.01" vaporized=""/>
    <tripinfo id="111" depart="247.00" departLane="E0_0" departPos="5.10" departSpeed="5.40" departDelay="145.00" arrival="344.00" arrivalLane="E3_0" arrivalPos="90.46" arrivalSpeed="30.62" duration="97.00" routeLength="1314.99" waitingTime="0.00" waitingCount="0" stopTime="0.00" timeLoss="24.09" rerouteNo="0" devices="tripinfo_111" vType="DEFAULT_VEHTYPE" speedFactor="1.13" vaporized=""/>
    <tripinfo id="112" depart="249.00" departLane="E0_0" departPos="5.10" departSpeed="5.18" departDelay="146.00" arrival="345.00" arrivalLane="E3_0" arrivalPos="90.46" arrivalSpeed="30.06" duration="96.00" routeLength="1314.99" waitingTime="0.00" waitingCount="0" stopTime="0.00" timeLoss="28.58" rerouteNo="0" devices="tripinfo_112" vType="DEFAULT_VEHTYPE" speedFactor="1.21" vaporized=""/>
    <tripinfo id="14" depart="22.00" departLane="E0_0" departPos="5.10" departSpeed="7.47" departDelay="10.00" arrival="355.00" arrivalLane="E3_0" arrivalPos="90.46" arrivalSpeed="24.88" duration="333.00" routeLength="1317.38" waitingTime="190.00" waitingCount="6" stopTime="0.00" timeLoss="250.24" rerouteNo="0" devices="tripinfo_14" vType="DEFAULT_VEHTYPE" speedFactor="1.04" vaporized=""/>
    <tripinfo id="113" depart="251.00" departLane="E0_0" departPos="5.10" departSpeed="4.92" departDelay="148.00" arrival="361.00" arrivalLane="E3_0" arrivalPos="90.46" arrivalSpeed="26.40" duration="110.00" routeLength="1314.99" waitingTime="0.00" waitingCount="0" stopTime="0.00" timeLoss="16.68" rerouteNo="0" devices="tripinfo_113" vType="DEFAULT_VEHTYPE" speedFactor="0.89" vaporized=""/>
    <tripinfo id="114" depart="253.00" departLane="E0_0" departPos="5.10" departSpeed="2.66" departDelay="149.00" arrival="362.00" arrivalLane="E3_0" arrivalPos="90.46" arrivalSpeed="27.17" duration="109.00" routeLength="1314.99" waitingTime="0.00" waitingCount="0" stopTime="0.00" timeLoss="23.83" rerouteNo="0" devices="tripinfo_114" vType="DEFAULT_VEHTYPE" speedFactor="0.97" vaporized=""/>
    <tripinfo id="115" depart="256.00" departLane="E0_0" departPos="5.10" departSpeed="4.69" departDelay="151.00" arrival="363.00" arrivalLane="E3_0" arrivalPos="90.46" arrivalSpeed="26.00" duration="107.00" routeLength="1314.99" waitingTime="0.00" waitingCount="0" stopTime="0.00" timeLoss="28.28" rerouteNo="0" devices="tripinfo_115" vType="DEFAULT_VEHTYPE" speedFactor="1.04" vaporized=""/>
    <tripinfo id="120" depart="268.00" departLane="E0_0" departPos="5.10" departSpeed="1.79" departDelay="157.00" arrival="365.00" arrivalLane="E3_0" arrivalPos="90.46" arrivalSpeed="29.04" duration="97.00" routeLength="1314.99" waitingTime="0.00" waitingCount="0" stopTime="0.00" timeLoss="15.83" rerouteNo="0" devices="tripinfo_120" vType="DEFAULT_VEHTYPE" speedFactor="1.01" vaporized=""/>
    <tripinfo id="122" depart="274.00" departLane="E0_0" departPos="5.10" departSpeed="4.84" departDelay="159.00" arrival="372.00" arrivalLane="E3_0" arrivalPos="90.46" arrivalSpeed="29.01" duration="98.00" routeLength="1314.99" waitingTime="0.00" waitingCount="0" stopTime="0.00" timeLoss="15.21" rerouteNo="0" devices="tripinfo_122" vType="DEFAULT_VEHTYPE" speedFactor="1.00" vaporized=""/>
    <tripinfo id="20" depart="35.00" departLane="E0_0" departPos="5.10" departSpeed="6.06" departDelay="18.00" arrival="382.00" arrivalLane="E3_0" arrivalPos="90.46" arrivalSpeed="24.64" duration="347.00" routeLength="1317.38" waitingTime="199.00" waitingCount="7" stopTime="0.00" timeLoss="261.90" rerouteNo="0" devices="tripinfo_20" vType="DEFAULT_VEHTYPE" speedFactor="1.01" vaporized=""/>
    <tripinfo id="21" depart="37.00" departLane="E0_0" departPos="5.10" departSpeed="6.91" departDelay="19.00" arrival="383.00" arrivalLane="E3_0" arrivalPos="90.46" arrivalSpeed="23.84" duration="346.00" routeLength="1317.38" waitingTime="188.00" waitingCount="7" stopTime="0.00" timeLoss="248.11" rerouteNo="0" devices="tripinfo_21" vType="DEFAULT_VEHTYPE" speedFactor="0.87" vaporized=""/>
    <tripinfo id="22" depart="39.00" departLane="E0_0" departPos="5.10" departSpeed="7.45" departDelay="21.00" arrival="385.00" arrivalLane="E3_0" arrivalPos="90.46" arrivalSpeed="24.99" duration="346.00" routeLength="1317.38" waitingTime="181.00" waitingCount="7" stopTime="0.00" timeLoss="263.11" rerouteNo="0" devices="tripinfo_22" vType="DEFAULT_VEHTYPE" speedFactor="1.03" vaporized=""/>
    <tripinfo id="23" depart="41.00" departLane="E0_0" departPos="5.10" departSpeed="7.82" departDelay="23.00" arrival="387.00" arrivalLane="E3_0" arrivalPos="90.46" arrivalSpeed="26.74" duration="346.00" routeLength="1317.38" waitingTime="177.00" waitingCount="7" stopTime="0.00" timeLoss="269.94" rerouteNo="0" devices="tripinfo_23" vType="DEFAULT_VEHTYPE" speedFactor="1.13" vaporized=""/>
    <tripinfo id="124" depart="278.00" departLane="E0_0" departPos="5.10" departSpeed="2.79" departDelay="158.00" arrival="394.00" arrivalLane="E3_0" arrivalPos="90.46" arrivalSpeed="23.22" duration="116.00" routeLength="1314.99" waitingTime="0.00" waitingCount="0" stopTime="0.00" timeLoss="13.83" rerouteNo="0" devices="tripinfo_124" vType="DEFAULT_VEHTYPE" speedFactor="0.80" vaporized=""/>