<?xml version="1.0" encoding="UTF-8"?>

<!-- generated on 2023-04-24 19:57:16 by Eclipse SUMO sumo Version 1.16.0
<configuration xmlns:xsi="http://www.w3.org/2001/XMLSchema-instance" xsi:noNamespaceSchemaLocation="http://sumo.dlr.de/xsd/sumoConfiguration.xsd">

    <input>
        <net-file value="002/../configurations/maps/4corners_neighborhoods.net.xml"/>
        <route-files value="002/Trips_File_002.rou.xml"/>
        <additional-files value="002/../edgedata.add.xml"/>
    </input>

    <output>
        <output-prefix value="002/"/>
        <summary-output value="002/../summary_002.xml"/>
        <tripinfo-output value="002/../tripinfo_002.xml"/>
    </output>

    <time>
        <begin value="0"/>
    </time>

    <processing>
        <route-steps value="200"/>
        <no-internal-links value="False"/>
        <time-to-teleport value="300"/>
        <time-to-teleport.highways value="0"/>
        <eager-insert value="False"/>
    </processing>

    <report>
        <verbose value="true"/>
        <no-warnings value="False"/>
        <log value="002/../iteration_002.sumo.log"/>
        <no-step-log value="true"/>
    </report>

    <random_number>
        <random value="False"/>
    </random_number>

</configuration>
-->

<tripinfos xmlns:xsi="http://www.w3.org/2001/XMLSchema-instance" xsi:noNamespaceSchemaLocation="http://sumo.dlr.de/xsd/tripinfo_file.xsd">
    <tripinfo id="6" depart="4.00" departLane="318908683#0_0" departPos="5.10" departSpeed="0.00" departDelay="0.00" arrival="83.00" arrivalLane="260998164#0_0" arrivalPos="257.55" arrivalSpeed="28.57" duration="79.00" routeLength="939.98" waitingTime="29.00" waitingCount="1" stopTime="0.00" timeLoss="42.18" rerouteNo="0" devices="tripinfo_6" vType="DEFAULT_VEHTYPE" speedFactor="1.03" vaporized=""/>
    <tripinfo id="15" depart="13.00" departLane="318908683#0_0" departPos="5.10" departSpeed="0.00" departDelay="4.00" arrival="89.00" arrivalLane="422688976#1_1" arrivalPos="294.40" arrivalSpeed="30.58" duration="76.00" routeLength="940.85" waitingTime="24.00" waitingCount="1" stopTime="0.00" timeLoss="43.19" rerouteNo="0" devices="tripinfo_15" vType="DEFAULT_VEHTYPE" speedFactor="1.12" vaporized=""/>
    <tripinfo id="8" depart="9.00" departLane="422685671#2_0" departPos="5.10" departSpeed="0.00" departDelay="3.00" arrival="90.00" arrivalLane="422688976#1_0" arrivalPos="294.40" arrivalSpeed="28.46" duration="81.00" routeLength="1317.05" waitingTime="9.00" waitingCount="1" stopTime="0.00" timeLoss="33.36" rerouteNo="0" devices="tripinfo_8" vType="DEFAULT_VEHTYPE" speedFactor="1.05" vaporized=""/>
    <tripinfo id="7" depart="7.00" departLane="318908683#0_0" departPos="5.10" departSpeed="0.00" departDelay="2.00" arrival="92.00" arrivalLane="260998164#0_0" arrivalPos="257.55" arrivalSpeed="22.74" duration="85.00" routeLength="939.98" waitingTime="27.00" waitingCount="1" stopTime="0.00" timeLoss="39.73" rerouteNo="0" devices="tripinfo_7" vType="DEFAULT_VEHTYPE" speedFactor="0.83" vaporized=""/>
    <tripinfo id="31" depart="32.00" departLane="318908683#0_0" departPos="5.10" departSpeed="0.00" departDelay="0.00" arrival="94.00" arrivalLane="422688976#1_1" arrivalPos="294.40" arrivalSpeed="25.26" duration="62.00" routeLength="940.85" waitingTime="8.00" waitingCount="1" stopTime="0.00" timeLoss="22.04" rerouteNo="0" devices="tripinfo_31" vType="DEFAULT_VEHTYPE" speedFactor="0.93" vaporized=""/>
    <tripinfo id="2" depart="0.00" departLane="422685671#2_0" departPos="5.10" departSpeed="0.00" departDelay="0.00" arrival="96.00" arrivalLane="-597602756#0_0" arrivalPos="325.99" arrivalSpeed="22.64" duration="96.00" routeLength="1778.05" waitingTime="0.00" waitingCount="0" stopTime="0.00" timeLoss="21.69" rerouteNo="0" devices="tripinfo_2" vType="DEFAULT_VEHTYPE" speedFactor="1.06" vaporized=""/>
    <tripinfo id="35" depart="46.00" departLane="918280985_0" departPos="5.10" departSpeed="0.00" departDelay="10.00" arrival="96.00" arrivalLane="15374898#0-AddedOffRampEdge_0" arrivalPos="100.00" arrivalSpeed="31.59" duration="50.00" routeLength="996.81" waitingTime="0.00" waitingCount="0" stopTime="0.00" timeLoss="16.22" rerouteNo="0" devices="tripinfo_35" vType="DEFAULT_VEHTYPE" speedFactor="1.17" vaporized=""/>
    <tripinfo id="5" depart="6.00" departLane="422685671#2_0" departPos="5.10" departSpeed="0.00" departDelay="3.00" arrival="100.00" arrivalLane="918280984_0" arrivalPos="38.78" arrivalSpeed="14.44" duration="94.00" routeLength="1069.78" waitingTime="33.00" waitingCount="1" stopTime="0.00" timeLoss="54.31" rerouteNo="0" devices="tripinfo_5" vType="DEFAULT_VEHTYPE" speedFactor="1.08" vaporized=""/>
    <tripinfo id="12" depart="10.00" departLane="318908683#0_0" departPos="5.10" departSpeed="0.00" departDelay="3.00" arrival="102.00" arrivalLane="918280984_0" arrivalPos="38.78" arrivalSpeed="14.32" duration="92.00" routeLength="693.58" waitingTime="39.00" waitingCount="2" stopTime="0.00" timeLoss="63.46" rerouteNo="0" devices="tripinfo_12" vType="DEFAULT_VEHTYPE" speedFactor="1.09" vaporized=""/>
    <tripinfo id="38" depart="49.00" departLane="918280985_0" departPos="5.10" departSpeed="0.00" departDelay="10.00" arrival="103.00" arrivalLane="15374898#0-AddedOffRampEdge_0" arrivalPos="100.00" arrivalSpeed="25.83" duration="54.00" routeLength="996.81" waitingTime="0.00" waitingCount="0" stopTime="0.00" timeLoss="13.74" rerouteNo="0" devices="tripinfo_38" vType="DEFAULT_VEHTYPE" speedFactor="0.97" vaporized=""/>
    <tripinfo id="43" depart="43.00" departLane="318908683#0_0" departPos="5.10" departSpeed="0.00" departDelay="0.00" arrival="104.00" arrivalLane="918280984_0" arrivalPos="38.78" arrivalSpeed="12.04" duration="61.00" routeLength="693.58" waitingTime="10.00" waitingCount="1" stopTime="0.00" timeLoss="28.91" rerouteNo="0" devices="tripinfo_43" vType="DEFAULT_VEHTYPE" speedFactor="0.96" vaporized=""/>
    <tripinfo id="44" depart="45.00" departLane="-260998164#3_0" departPos="5.10" departSpeed="0.00" departDelay="0.00" arrival="112.00" arrivalLane="-318908683#1_0" arrivalPos="71.22" arrivalSpeed="14.72" duration="67.00" routeLength="955.07" waitingTime="17.00" waitingCount="1" stopTime="0.00" timeLoss="31.83" rerouteNo="0" devices="tripinfo_44" vType="DEFAULT_VEHTYPE" speedFactor="1.09" vaporized=""/>
    <tripinfo id="13" depart="12.00" departLane="422685671#2_0" departPos="5.10" departSpeed="0.00" departDelay="4.00" arrival="113.00" arrivalLane="-105681660#20_0" arrivalPos="806.12" arrivalSpeed="22.55" duration="101.00" routeLength="1813.05" waitingTime="0.00" waitingCount="0" stopTime="0.00" timeLoss="22.50" rerouteNo="0" devices="tripinfo_13" vType="DEFAULT_VEHTYPE" speedFactor="1.03" vaporized=""/>
    <tripinfo id="9" depart="7.00" departLane="597602756#0_0" departPos="5.10" departSpeed="0.00" departDelay="0.00" arrival="116.00" arrivalLane="-318908683#1_0" arrivalPos="71.22" arrivalSpeed="11.30" duration="109.00" routeLength="1382.88" waitingTime="3.00" waitingCount="1" stopTime="0.00" timeLoss="23.26" rerouteNo="0" devices="tripinfo_9" vType="DEFAULT_VEHTYPE" speedFactor="0.89" vaporized=""/>
    <tripinfo id="18" depart="14.00" departLane="597602756#0_0" departPos="5.10" departSpeed="0.00" departDelay="0.00" arrival="118.00" arrivalLane="-318908683#1_0" arrivalPos="71.22" arrivalSpeed="12.12" duration="104.00" routeLength="1382.88" waitingTime="0.00" waitingCount="0" stopTime="0.00" timeLoss="17.33" rerouteNo="0" devices="tripinfo_18" vType="DEFAULT_VEHTYPE" speedFactor="0.88" vaporized=""/>
    <tripinfo id="4" depart="1.00" departLane="318908683#0_0" departPos="5.10" departSpeed="0.00" departDelay="0.00" arrival="119.00" arrivalLane="-597602756#0_0" arrivalPos="325.99" arrivalSpeed="21.36" duration="118.00" routeLength="1401.85" waitingTime="30.00" waitingCount="1" stopTime="0.00" timeLoss="52.39" rerouteNo="0" devices="tripinfo_4" vType="DEFAULT_VEHTYPE" speedFactor="1.01" vaporized=""/>
    <tripinfo id="16" depart="11.00" departLane="918280985_0" departPos="5.10" departSpeed="0.00" departDelay="0.00" arrival="119.00" arrivalLane="-105681660#20_0" arrivalPos="806.12" arrivalSpeed="21.00" duration="108.00" routeLength="1360.98" waitingTime="19.00" waitingCount="1" stopTime="0.00" timeLoss="30.91" rerouteNo="0" devices="tripinfo_16" vType="DEFAULT_VEHTYPE" speedFactor="0.99" vaporized=""/>
    <tripinfo id="17" depart="14.00" departLane="918280985_0" departPos="5.10" departSpeed="0.00" departDelay="2.00" arrival="119.00" arrivalLane="-597602753#1_0" arrivalPos="143.59" arrivalSpeed="19.39" duration="105.00" routeLength="1123.56" waitingTime="18.00" waitingCount="1" stopTime="0.00" timeLoss="31.94" rerouteNo="0" devices="tripinfo_17" vType="DEFAULT_VEHTYPE" speedFactor="0.93" vaporized=""/>
    <tripinfo id="21" depart="18.00" departLane="422685671#2_0" departPos="5.10" departSpeed="0.00" departDelay="0.00" arrival="119.00" arrivalLane="260998164#0_0" arrivalPos="257.55" arrivalSpeed="31.36" duration="101.00" routeLength="1329.43" waitingTime="35.00" waitingCount="2" stopTime="0.00" timeLoss="59.50" rerouteNo="0" devices="tripinfo_21" vType="DEFAULT_VEHTYPE" speedFactor="1.16" vaporized=""/>
    <tripinfo id="62" depart="69.00" departLane="-260998164#3_0" departPos="5.10" departSpeed="0.00" departDelay="0.00" arrival="120.00" arrivalLane="-318908683#1_0" arrivalPos="71.22" arrivalSpeed="14.34" duration="51.00" routeLength="955.07" waitingTime="0.00" waitingCount="0" stopTime="0.00" timeLoss="14.58" rerouteNo="0" devices="tripinfo_62" vType="DEFAULT_VEHTYPE" speedFactor="1.08" vaporized=""/>
    <tripinfo id="27" depart="25.00" departLane="597602753#0_0" departPos="5.10" departSpeed="0.00" departDelay="0.00" arrival="121.00" arrivalLane="918280984_0" arrivalPos="38.78" arrivalSpeed="10.89" duration="96.00" routeLength="1061.00" waitingTime="0.00" waitingCount="0" stopTime="0.00" timeLoss="12.78" rerouteNo="0" devices="tripinfo_27" vType="DEFAULT_VEHTYPE" speedFactor="0.87" vaporized=""/>
    <tripinfo id="25" depart="24.00" departLane="422688973_0" departPos="5.10" departSpeed="0.00" departDelay="2.00" arrival="123.00" arrivalLane="15374898#0-AddedOffRampEdge_0" arrivalPos="100.00" arrivalSpeed="23.73" duration="99.00" routeLength="1006.54" waitingTime="40.00" waitingCount="1" stopTime="0.00" timeLoss="57.27" rerouteNo="0" devices="tripinfo_25" vType="DEFAULT_VEHTYPE" speedFactor="0.89" vaporized=""/>
    <tripinfo id="3" depart="3.00" departLane="422685671#2_0" departPos="5.10" departSpeed="0.00" departDelay="2.00" arrival="126.00" arrivalLane="260998164#0_0" arrivalPos="257.55" arrivalSpeed="25.05" duration="123.00" routeLength="1329.43" waitingTime="52.00" waitingCount="1" stopTime="0.00" timeLoss="71.73" rerouteNo="0" devices="tripinfo_3" vType="DEFAULT_VEHTYPE" speedFactor="0.94" vaporized=""/>
    <tripinfo id="11" depart="7.00" departLane="422688973_0" departPos="5.10" departSpeed="0.00" departDelay="0.00" arrival="126.00" arrivalLane="-597602753#1_0" arrivalPos="143.59" arrivalSpeed="18.99" duration="119.00" routeLength="1063.91" waitingTime="14.00" waitingCount="2" stopTime="0.00" timeLoss="35.71" rerouteNo="0" devices="tripinfo_11" vType="DEFAULT_VEHTYPE" speedFactor="0.86" vaporized=""/>
    <tripinfo id="23" depart="20.00" departLane="918280985_0" departPos="5.10" departSpeed="0.00" departDelay="1.00" arrival="128.00" arrivalLane="-105681660#20_0" arrivalPos="806.12" arrivalSpeed="21.66" duration="108.00" routeLength="1360.98" waitingTime="14.00" waitingCount="1" stopTime="0.00" timeLoss="32.02" rerouteNo="0" devices="tripinfo_23" vType="DEFAULT_VEHTYPE" speedFactor="1.01" vaporized=""/>
    <tripinfo id="36" depart="37.00" departLane="422685671#2_0" departPos="5.10" departSpeed="0.00" departDelay="0.00" arrival="128.00" arrivalLane="260998164#0_0" arrivalPos="257.55" arrivalSpeed="26.61" duration="91.00" routeLength="1329.43" waitingTime="21.00" waitingCount="1" stopTime="0.00" timeLoss="42.01" rerouteNo="0" devices="tripinfo_36" vType="DEFAULT_VEHTYPE" speedFactor="0.99" vaporized=""/>
    <tripinfo id="30" depart="33.00" departLane="918280985_0" departPos="5.10" departSpeed="0.00" departDelay="2.00" arrival="129.00" arrivalLane="-105681660#20_0" arrivalPos="806.12" arrivalSpeed="23.97" duration="96.00" routeLength="1360.98" waitingTime="6.00" waitingCount="1" stopTime="0.00" timeLoss="28.63" rerouteNo="0" devices="tripinfo_30" vType="DEFAULT_VEHTYPE" speedFactor="1.13" vaporized=""/>
    <tripinfo id="28" depart="30.00" departLane="918280985_0" departPos="5.10" departSpeed="0.00" departDelay="0.00" arrival="133.00" arrivalLane="-318908683#1_0" arrivalPos="71.22" arrivalSpeed="12.43" duration="103.00" routeLength="674.50" waitingTime="48.00" waitingCount="2" stopTime="0.00" timeLoss="70.47" rerouteNo="0" devices="tripinfo_28" vType="DEFAULT_VEHTYPE" speedFactor="0.92" vaporized=""/>
    <tripinfo id="66" depart="71.00" departLane="422688973_0" departPos="5.10" departSpeed="0.00" departDelay="0.00" arrival="135.00" arrivalLane="-318908683#1_0" arrivalPos="71.22" arrivalSpeed="12.56" duration="64.00" routeLength="684.23" waitingTime="16.00" waitingCount="1" stopTime="0.00" timeLoss="33.95" rerouteNo="0" devices="tripinfo_66" vType="DEFAULT_VEHTYPE" speedFactor="0.94" vaporized=""/>
    <tripinfo id="42" depart="52.00" departLane="918280985_0" departPos="5.10" departSpeed="0.00" departDelay="11.00" arrival="146.00" arrivalLane="-597602753#1_0" arrivalPos="143.59" arrivalSpeed="21.90" duration="94.00" routeLength="1123.56" waitingTime="14.00" waitingCount="1" stopTime="0.00" timeLoss="28.61" rerouteNo="0" devices="tripinfo_42" vType="DEFAULT_VEHTYPE" speedFactor="1.03" vaporized=""/>
    <tripinfo id="14" depart="9.00" departLane="-260998164#3_0" departPos="5.10" departSpeed="0.00" departDelay="0.00" arrival="152.00" arrivalLane="422688976#1_0" arrivalPos="294.40" arrivalSpeed="28.85" duration="143.00" routeLength="1712.42" waitingTime="54.00" waitingCount="2" stopTime="0.00" timeLoss="82.60" rerouteNo="0" devices="tripinfo_14" vType="DEFAULT_VEHTYPE" speedFactor="1.05" vaporized=""/>
    <tripinfo id="34" depart="33.00" departLane="597602753#0_0" departPos="5.10" departSpeed="0.00" departDelay="0.00" arrival="152.00" arrivalLane="-318908683#1_0" arrivalPos="71.22" arrivalSpeed="13.64" duration="119.00" routeLength="1642.11" waitingTime="0.00" waitingCount="0" stopTime="0.00" timeLoss="24.37" rerouteNo="0" devices="tripinfo_34" vType="DEFAULT_VEHTYPE" speedFactor="1.01" vaporized=""/>
    <tripinfo id="20" depart="17.00" departLane="918280985_0" departPos="5.10" departSpeed="0.00" departDelay="1.00" arrival="153.00" arrivalLane="-597602756#0_0" arrivalPos="325.99" arrivalSpeed="20.12" duration="136.00" routeLength="1890.39" waitingTime="15.00" waitingCount="1" stopTime="0.00" timeLoss="44.22" rerouteNo="0" devices="tripinfo_20" vType="DEFAULT_VEHTYPE" speedFactor="0.94" vaporized=""/>
    <tripinfo id="51" depart="58.00" departLane="918280985_0" departPos="5.10" departSpeed="0.00" departDelay="4.00" arrival="156.00" arrivalLane="-597602753#1_0" arrivalPos="143.59" arrivalSpeed="18.07" duration="98.00" routeLength="1072.66" waitingTime="0.00" waitingCount="0" stopTime="0.00" timeLoss="12.13" rerouteNo="0" devices="tripinfo_51" vType="DEFAULT_VEHTYPE" speedFactor="0.85" vaporized=""/>
    <tripinfo id="46" depart="49.00" departLane="597602753#0_0" departPos="5.10" departSpeed="0.00" departDelay="0.00" arrival="157.00" arrivalLane="-597602756#0_0" arrivalPos="325.99" arrivalSpeed="23.00" duration="108.00" routeLength="1646.04" waitingTime="12.00" waitingCount="1" stopTime="0.00" timeLoss="35.00" rerouteNo="0" devices="tripinfo_46" vType="DEFAULT_VEHTYPE" speedFactor="1.04" vaporized=""/>
    <tripinfo id="45" depart="55.00" departLane="918280985_0" departPos="5.10" departSpeed="0.00" departDelay="10.00" arrival="158.00" arrivalLane="-105681660#20_0" arrivalPos="806.12" arrivalSpeed="21.94" duration="103.00" routeLength="1360.98" waitingTime="13.00" waitingCount="1" stopTime="0.00" timeLoss="28.97" rerouteNo="0" devices="tripinfo_45" vType="DEFAULT_VEHTYPE" speedFactor="1.04" vaporized=""/>
    <tripinfo id="37" depart="39.00" departLane="597602753#0_0" departPos="5.10" departSpeed="0.00" departDelay="0.00" arrival="159.00" arrivalLane="260998164#0_0" arrivalPos="257.55" arrivalSpeed="28.10" duration="120.00" routeLength="1937.50" waitingTime="4.00" waitingCount="1" stopTime="0.00" timeLoss="27.45" rerouteNo="0" devices="tripinfo_37" vType="DEFAULT_VEHTYPE" speedFactor="1.02" vaporized=""/>
    <tripinfo id="70" depart="75.00" departLane="918280985_0" departPos="5.10" departSpeed="0.00" departDelay="0.00" arrival="159.00" arrivalLane="15374898#0-AddedOffRampEdge_0" arrivalPos="100.00" arrivalSpeed="28.88" duration="84.00" routeLength="996.81" waitingTime="28.00" waitingCount="1" stopTime="0.00" timeLoss="45.54" rerouteNo="0" devices="tripinfo_70" vType="DEFAULT_VEHTYPE" speedFactor="1.04" vaporized=""/>
    <tripinfo id="32" depart="32.00" departLane="597602756#0_0" departPos="5.10" departSpeed="0.00" departDelay="0.00" arrival="160.00" arrivalLane="918280984_0" arrivalPos="38.78" arrivalSpeed="15.81" duration="128.00" routeLength="1737.87" waitingTime="29.00" waitingCount="2" stopTime="0.00" timeLoss="61.78" rerouteNo="0" devices="tripinfo_32" vType="DEFAULT_VEHTYPE" speedFactor="1.18" vaporized=""/>
    <tripinfo id="81" depart="85.00" departLane="918280985_0" departPos="5.10" departSpeed="0.00" departDelay="0.00" arrival="160.00" arrivalLane="15374898#0-AddedOffRampEdge_0" arrivalPos="100.00" arrivalSpeed="29.96" duration="75.00" routeLength="996.81" waitingTime="20.00" waitingCount="1" stopTime="0.00" timeLoss="38.79" rerouteNo="0" devices="tripinfo_81" vType="DEFAULT_VEHTYPE" speedFactor="1.09" vaporized=""/>
    <tripinfo id="52" depart="57.00" departLane="422685671#2_0" departPos="5.10" departSpeed="0.00" departDelay="0.00" arrival="164.00" arrivalLane="918280984_0" arrivalPos="38.78" arrivalSpeed="10.89" duration="107.00" routeLength="1069.78" waitingTime="30.00" waitingCount="2" stopTime="0.00" timeLoss="55.54" rerouteNo="0" devices="tripinfo_52" vType="DEFAULT_VEHTYPE" speedFactor="0.85" vaporized=""/>
    <tripinfo id="64" depart="73.00" departLane="597602753#0_0" departPos="5.10" departSpeed="0.00" departDelay="3.00" arrival="165.00" arrivalLane="-597602756#0_0" arrivalPos="325.99" arrivalSpeed="22.36" duration="92.00" routeLength="1646.04" waitingTime="0.00" waitingCount="0" stopTime="0.00" timeLoss="17.46" rerouteNo="0" devices="tripinfo_64" vType="DEFAULT_VEHTYPE" speedFactor="1.02" vaporized=""/>
    <tripinfo id="41" depart="42.00" departLane="597602753#0_0" departPos="5.10" departSpeed="0.00" departDelay="1.00" arrival="166.00" arrivalLane="918280984_0" arrivalPos="38.78" arrivalSpeed="11.92" duration="124.00" routeLength="1540.95" waitingTime="22.00" waitingCount="2" stopTime="0.00" timeLoss="47.48" rerouteNo="0" devices="tripinfo_41" vType="DEFAULT_VEHTYPE" speedFactor="0.90" vaporized=""/>
    <tripinfo id="98" depart="99.00" departLane="918280985_0" departPos="5.10" departSpeed="0.00" departDelay="0.00" arrival="166.00" arrivalLane="15374898#0-AddedOffRampEdge_0" arrivalPos="100.00" arrivalSpeed="27.59" duration="67.00" routeLength="996.81" waitingTime="8.00" waitingCount="1" stopTime="0.00" timeLoss="27.23" rerouteNo="0" devices="tripinfo_98" vType="DEFAULT_VEHTYPE" speedFactor="1.01" vaporized=""/>
    <tripinfo id="80" depart="87.00" departLane="318908683#0_0" departPos="5.10" departSpeed="0.00" departDelay="3.00" arrival="167.00" arrivalLane="260998164#0_0" arrivalPos="257.55" arrivalSpeed="27.98" duration="80.00" routeLength="939.98" waitingTime="27.00" waitingCount="1" stopTime="0.00" timeLoss="42.50" rerouteNo="0" devices="tripinfo_80" vType="DEFAULT_VEHTYPE" speedFactor="1.01" vaporized=""/>
    <tripinfo id="110" depart="112.00" departLane="318908683#0_0" departPos="5.10" departSpeed="0.00" departDelay="0.00" arrival="167.00" arrivalLane="918280984_0" arrivalPos="38.78" arrivalSpeed="13.93" duration="55.00" routeLength="693.58" waitingTime="7.00" waitingCount="1" stopTime="0.00" timeLoss="25.94" rerouteNo="0" devices="tripinfo_110" vType="DEFAULT_VEHTYPE" speedFactor="1.06" vaporized=""/>
    <tripinfo id="107" depart="107.00" departLane="918280985_0" departPos="5.10" departSpeed="0.00" departDelay="0.00" arrival="170.00" arrivalLane="15374898#0-AddedOffRampEdge_0" arrivalPos="100.00" arrivalSpeed="28.55" duration="63.00" routeLength="996.81" waitingTime="5.00" waitingCount="1" stopTime="0.00" timeLoss="26.46" rerouteNo="0" devices="tripinfo_107" vType="DEFAULT_VEHTYPE" speedFactor="1.07" vaporized=""/>
    <tripinfo id="137" depart="131.00" departLane="318908683#0_0" departPos="5.10" departSpeed="0.00" departDelay="0.00" arrival="170.00" arrivalLane="918280984_0" arrivalPos="38.78" arrivalSpeed="13.53" duration="39.00" routeLength="693.58" waitingTime="0.00" waitingCount="0" stopTime="0.00" timeLoss="8.31" rerouteNo="0" devices="tripinfo_137" vType="DEFAULT_VEHTYPE" speedFactor="1.01" vaporized=""/>
    <tripinfo id="73" depart="83.00" departLane="-260998164#3_0" departPos="5.10" departSpeed="0.00" departDelay="3.00" arrival="173.00" arrivalLane="-597602756#0_0" arrivalPos="325.99" arrivalSpeed="21.23" duration="90.00" routeLength="1231.40" waitingTime="0.00" waitingCount="0" stopTime="0.00" timeLoss="15.53" rerouteNo="0" devices="tripinfo_73" vType="DEFAULT_VEHTYPE" speedFactor="0.97" vaporized=""/>
    <tripinfo id="82" depart="88.00" departLane="-260998164#3_0" departPos="5.10" departSpeed="0.00" departDelay="2.00" arrival="175.00" arrivalLane="-597602756#0_0" arrivalPos="325.99" arrivalSpeed="22.88" duration="87.00" routeLength="1231.40" waitingTime="0.00" waitingCount="0" stopTime="0.00" timeLoss="17.30" rerouteNo="0" devices="tripinfo_82" vType="DEFAULT_VEHTYPE" speedFactor="1.03" vaporized=""/>
    <tripinfo id="50" depart="59.00" departLane="597602756#0_0" departPos="5.10" departSpeed="0.00" departDelay="6.00" arrival="176.00" arrivalLane="-105681660#20_0" arrivalPos="806.12" arrivalSpeed="19.34" duration="117.00" routeLength="1867.67" waitingTime="0.00" waitingCount="0" stopTime="0.00" timeLoss="18.41" rerouteNo="0" devices="tripinfo_50" vType="DEFAULT_VEHTYPE" speedFactor="0.88" vaporized=""/>
    <tripinfo id="72" depart="82.00" departLane="597602753#0_0" departPos="5.10" departSpeed="0.00" departDelay="6.00" arrival="178.00" arrivalLane="-105681660#20_0" arrivalPos="806.12" arrivalSpeed="22.59" duration="96.00" routeLength="1387.70" waitingTime="9.00" waitingCount="1" stopTime="0.00" timeLoss="33.27" rerouteNo="0" devices="tripinfo_72" vType="DEFAULT_VEHTYPE" speedFactor="1.02" vaporized=""/>
    <tripinfo id="55" depart="61.00" departLane="597602753#0_0" departPos="5.10" departSpeed="0.00" departDelay="0.00" arrival="180.00" arrivalLane="918280984_0" arrivalPos="38.78" arrivalSpeed="14.24" duration="119.00" routeLength="1061.00" waitingTime="36.00" waitingCount="1" stopTime="0.00" timeLoss="53.29" rerouteNo="0" devices="tripinfo_55" vType="DEFAULT_VEHTYPE" speedFactor="1.10" vaporized=""/>
    <tripinfo id="22" depart="21.00" departLane="422685671#2_0" departPos="5.10" departSpeed="0.00" departDelay="2.00" arrival="181.00" arrivalLane="-105681660#20_0" arrivalPos="806.12" arrivalSpeed="22.17" duration="160.00" routeLength="1813.05" waitingTime="55.00" waitingCount="1" stopTime="0.00" timeLoss="81.50" rerouteNo="0" devices="tripinfo_22" vType="DEFAULT_VEHTYPE" speedFactor="1.02" vaporized=""/>
    <tripinfo id="33" depart="32.00" departLane="422688973_0" departPos="5.10" departSpeed="0.00" departDelay="0.00" arrival="181.00" arrivalLane="-597602753#1_0" arrivalPos="143.59" arrivalSpeed="25.61" duration="149.00" routeLength="1114.81" waitingTime="62.00" waitingCount="2" stopTime="0.00" timeLoss="91.51" rerouteNo="0" devices="tripinfo_33" vType="DEFAULT_VEHTYPE" speedFactor="1.15" vaporized=""/>
    <tripinfo id="101" depart="103.00" departLane="-260998164#3_0" departPos="5.10" departSpeed="0.00" departDelay="1.00" arrival="186.00" arrivalLane="-597602756#0_0" arrivalPos="325.99" arrivalSpeed="24.27" duration="83.00" routeLength="1231.40" waitingTime="0.00" waitingCount="0" stopTime="0.00" timeLoss="17.06" rerouteNo="0" devices="tripinfo_101" vType="DEFAULT_VEHTYPE" speedFactor="1.10" vaporized=""/>
    <tripinfo id="47" depart="52.00" departLane="597602753#0_0" departPos="5.10" departSpeed="0.00" departDelay="3.00" arrival="187.00" arrivalLane="-105681660#20_0" arrivalPos="806.12" arrivalSpeed="22.90" duration="135.00" routeLength="1856.78" waitingTime="17.00" waitingCount="1" stopTime="0.00" timeLoss="36.29" rerouteNo="0" devices="tripinfo_47" vType="DEFAULT_VEHTYPE" speedFactor="1.09" vaporized=""/>
    <tripinfo id="71" depart="79.00" departLane="597602753#0_0" departPos="5.10" departSpeed="0.00" departDelay="4.00" arrival="188.00" arrivalLane="918280984_0" arrivalPos="38.78" arrivalSpeed="12.99" duration="109.00" routeLength="1061.00" waitingTime="12.00" waitingCount="1" stopTime="0.00" timeLoss="38.18" rerouteNo="0" devices="tripinfo_71" vType="DEFAULT_VEHTYPE" speedFactor="1.02" vaporized=""/>
    <tripinfo id="24" depart="21.00" departLane="422688973_0" departPos="5.10" departSpeed="0.00" departDelay="0.00" arrival="190.00" arrivalLane="260998164#0_0" arrivalPos="257.55" arrivalSpeed="25.82" duration="169.00" routeLength="1470.06" waitingTime="88.00" waitingCount="2" stopTime="0.00" timeLoss="113.48" rerouteNo="0" devices="tripinfo_24" vType="DEFAULT_VEHTYPE" speedFactor="0.97" vaporized=""/>
    <tripinfo id="57" depart="63.00" departLane="422685671#2_0" departPos="5.10" departSpeed="0.00" departDelay="0.00" arrival="190.00" arrivalLane="-597602756#0_0" arrivalPos="325.99" arrivalSpeed="22.02" duration="127.00" routeLength="1778.05" waitingTime="18.00" waitingCount="1" stopTime="0.00" timeLoss="46.49" rerouteNo="0" devices="tripinfo_57" vType="DEFAULT_VEHTYPE" speedFactor="1.00" vaporized=""/>
    <tripinfo id="74" depart="82.00" departLane="422688973_0" departPos="5.10" departSpeed="0.00" departDelay="0.00" arrival="191.00" arrivalLane="-597602753#1_0" arrivalPos="143.59" arrivalSpeed="20.23" duration="109.00" routeLength="1114.81" waitingTime="12.00" waitingCount="2" stopTime="0.00" timeLoss="38.52" rerouteNo="0" devices="tripinfo_74" vType="DEFAULT_VEHTYPE" speedFactor="0.94" vaporized=""/>
    <tripinfo id="56" depart="64.00" departLane="597602753#0_0" departPos="5.10" departSpeed="0.00" departDelay="3.00" arrival="192.00" arrivalLane="422688976#1_0" arrivalPos="294.40" arrivalSpeed="27.10" duration="128.00" routeLength="1286.53" waitingTime="29.00" waitingCount="1" stopTime="0.00" timeLoss="49.23" rerouteNo="0" devices="tripinfo_56" vType="DEFAULT_VEHTYPE" speedFactor="1.00" vaporized=""/>
    <tripinfo id="63" depart="70.00" departLane="422688973_0" departPos="5.10" departSpeed="0.00" departDelay="0.00" arrival="192.00" arrivalLane="260998164#0_0" arrivalPos="257.55" arrivalSpeed="29.83" duration="122.00" routeLength="1470.06" waitingTime="45.00" waitingCount="1" stopTime="0.00" timeLoss="72.79" rerouteNo="0" devices="tripinfo_63" vType="DEFAULT_VEHTYPE" speedFactor="1.12" vaporized=""/>
    <tripinfo id="91" depart="89.00" departLane="918280985_0" departPos="5.10" departSpeed="0.00" departDelay="0.00" arrival="193.00" arrivalLane="260998164#0_0" arrivalPos="257.55" arrivalSpeed="27.53" duration="104.00" routeLength="1460.33" waitingTime="25.00" waitingCount="2" stopTime="0.00" timeLoss="49.52" rerouteNo="0" devices="tripinfo_91" vType="DEFAULT_VEHTYPE" speedFactor="1.02" vaporized=""/>
    <tripinfo id="29" depart="30.00" departLane="422688973_0" departPos="5.10" departSpeed="0.00" departDelay="0.00" arrival="194.00" arrivalLane="-105681660#20_0" arrivalPos="806.12" arrivalSpeed="20.56" duration="164.00" routeLength="1352.23" waitingTime="66.00" waitingCount="2" stopTime="0.00" timeLoss="84.81" rerouteNo="0" devices="tripinfo_29" vType="DEFAULT_VEHTYPE" speedFactor="0.95" vaporized=""/>
    <tripinfo id="40" depart="41.00" departLane="422685671#2_0" departPos="5.10" departSpeed="0.00" departDelay="0.00" arrival="195.00" arrivalLane="-597602753#1_0" arrivalPos="143.59" arrivalSpeed="23.58" duration="154.00" routeLength="1584.34" waitingTime="50.00" waitingCount="2" stopTime="0.00" timeLoss="90.75" rerouteNo="0" devices="tripinfo_40" vType="DEFAULT_VEHTYPE" speedFactor="1.10" vaporized=""/>
    <tripinfo id="77" depart="85.00" departLane="597602753#0_0" departPos="5.10" departSpeed="0.00" departDelay="2.00" arrival="196.00" arrivalLane="-597602756#0_0" arrivalPos="325.99" arrivalSpeed="20.62" duration="111.00" routeLength="1646.04" waitingTime="6.00" waitingCount="1" stopTime="0.00" timeLoss="34.07" rerouteNo="0" devices="tripinfo_77" vType="DEFAULT_VEHTYPE" speedFactor="0.98" vaporized=""/>
    <tripinfo id="61" depart="67.00" departLane="422688973_0" departPos="5.10" departSpeed="0.00" departDelay="0.00" arrival="197.00" arrivalLane="-105681660#20_0" arrivalPos="806.12" arrivalSpeed="21.04" duration="130.00" routeLength="1352.23" waitingTime="29.00" waitingCount="2" stopTime="0.00" timeLoss="52.09" rerouteNo="0" devices="tripinfo_61" vType="DEFAULT_VEHTYPE" speedFactor="0.97" vaporized=""/>
    <tripinfo id="75" depart="85.00" departLane="-260998164#3_0" departPos="5.10" departSpeed="0.00" departDelay="3.00" arrival="197.00" arrivalLane="15374898#0-AddedOffRampEdge_0" arrivalPos="100.00" arrivalSpeed="28.89" duration="112.00" routeLength="1332.80" waitingTime="44.00" waitingCount="1" stopTime="0.00" timeLoss="65.80" rerouteNo="0" devices="tripinfo_75" vType="DEFAULT_VEHTYPE" speedFactor="1.06" vaporized=""/>