<?xml version="1.0" encoding="UTF-8"?>

<!-- generated on 2023-05-01 14:44:03 by Eclipse SUMO sumo Version 1.16.0
<configuration xmlns:xsi="http://www.w3.org/2001/XMLSchema-instance" xsi:noNamespaceSchemaLocation="http://sumo.dlr.de/xsd/sumoConfiguration.xsd">

    <input>
        <net-file value="003/../configurations/maps/Braess_Homebrew_fixed1.net.xml"/>
        <route-files value="003/Trips_File_003.rou.xml"/>
        <additional-files value="003/../edgedata.add.xml"/>
    </input>

    <output>
        <output-prefix value="003/"/>
        <summary-output value="003/../summary_003.xml"/>
        <tripinfo-output value="003/../tripinfo_003.xml"/>
    </output>

    <time>
        <begin value="0"/>
    </time>

    <processing>
        <route-steps value="200"/>
        <no-internal-links value="False"/>
        <time-to-teleport value="300"/>
        <time-to-teleport.highways value="0"/>
        <eager-insert value="False"/>
    </processing>

    <report>
        <verbose value="true"/>
        <no-warnings value="False"/>
        <log value="003/../iteration_003.sumo.log"/>
        <no-step-log value="true"/>
    </report>

    <mesoscopic>
        <mesosim value="true"/>
        <meso-recheck value="0"/>
    </mesoscopic>

    <random_number>
        <random value="False"/>
    </random_number>

</configuration>
-->

<tripinfos xmlns:xsi="http://www.w3.org/2001/XMLSchema-instance" xsi:noNamespaceSchemaLocation="http://sumo.dlr.de/xsd/tripinfo_file.xsd">
    <tripinfo id="2" depart="0.00" departLane="" departPos="0.00" departSpeed="21.20" departDelay="0.00" arrival="75.00" arrivalLane="" arrivalPos="90.46" arrivalSpeed="31.80" duration="75.00" routeLength="1190.91" waitingTime="0.00" waitingCount="0" stopTime="0.00" timeLoss="0.00" rerouteNo="0" devices="tripinfo_2" vType="DEFAULT_VEHTYPE" speedFactor="1.06" vaporized=""/>
    <tripinfo id="4" depart="1.00" departLane="" departPos="0.00" departSpeed="15.39" departDelay="0.00" arrival="78.00" arrivalLane="" arrivalPos="90.46" arrivalSpeed="30.31" duration="77.00" routeLength="1188.76" waitingTime="0.00" waitingCount="0" stopTime="0.00" timeLoss="1.99" rerouteNo="0" devices="tripinfo_4" vType="DEFAULT_VEHTYPE" speedFactor="1.01" vaporized=""/>
    <tripinfo id="5" depart="6.00" departLane="" departPos="0.00" departSpeed="21.65" departDelay="0.00" arrival="80.00" arrivalLane="" arrivalPos="90.46" arrivalSpeed="30.83" duration="74.00" routeLength="1188.76" waitingTime="0.00" waitingCount="0" stopTime="0.00" timeLoss="3.36" rerouteNo="0" devices="tripinfo_5" vType="DEFAULT_VEHTYPE" speedFactor="1.08" vaporized=""/>
    <tripinfo id="3" depart="1.00" departLane="" departPos="0.00" departSpeed="18.77" departDelay="0.00" arrival="86.00" arrivalLane="" arrivalPos="90.46" arrivalSpeed="28.15" duration="85.00" routeLength="1190.91" waitingTime="0.00" waitingCount="0" stopTime="0.00" timeLoss="0.00" rerouteNo="0" devices="tripinfo_3" vType="DEFAULT_VEHTYPE" speedFactor="0.94" vaporized=""/>
    <tripinfo id="6" depart="7.00" departLane="" departPos="0.00" departSpeed="19.96" departDelay="0.00" arrival="88.00" arrivalLane="" arrivalPos="90.46" arrivalSpeed="30.91" duration="81.00" routeLength="1190.91" waitingTime="0.00" waitingCount="0" stopTime="0.00" timeLoss="3.13" rerouteNo="0" devices="tripinfo_6" vType="DEFAULT_VEHTYPE" speedFactor="1.03" vaporized=""/>
    <tripinfo id="8" depart="8.00" departLane="" departPos="0.00" departSpeed="15.21" departDelay="1.00" arrival="89.00" arrivalLane="" arrivalPos="90.46" arrivalSpeed="31.37" duration="81.00" routeLength="1190.91" waitingTime="0.00" waitingCount="0" stopTime="0.00" timeLoss="5.11" rerouteNo="0" devices="tripinfo_8" vType="DEFAULT_VEHTYPE" speedFactor="1.05" vaporized=""/>
    <tripinfo id="10" depart="12.00" departLane="" departPos="0.00" departSpeed="17.23" departDelay="4.00" arrival="98.00" arrivalLane="" arrivalPos="90.46" arrivalSpeed="28.14" duration="86.00" routeLength="1190.91" waitingTime="0.00" waitingCount="0" stopTime="0.00" timeLoss="0.61" rerouteNo="0" devices="tripinfo_10" vType="DEFAULT_VEHTYPE" speedFactor="0.94" vaporized=""/>
    <tripinfo id="7" depart="7.00" departLane="" departPos="0.00" departSpeed="16.18" departDelay="0.00" arrival="99.00" arrivalLane="" arrivalPos="90.46" arrivalSpeed="24.93" duration="92.00" routeLength="1188.76" waitingTime="0.78" waitingCount="0" stopTime="0.00" timeLoss="1.00" rerouteNo="0" devices="tripinfo_7" vType="DEFAULT_VEHTYPE" speedFactor="0.83" vaporized=""/>
    <tripinfo id="9" depart="10.00" departLane="" departPos="0.00" departSpeed="16.16" departDelay="3.00" arrival="101.00" arrivalLane="" arrivalPos="90.46" arrivalSpeed="26.58" duration="91.00" routeLength="1188.76" waitingTime="0.00" waitingCount="0" stopTime="0.00" timeLoss="5.44" rerouteNo="0" devices="tripinfo_9" vType="DEFAULT_VEHTYPE" speedFactor="0.89" vaporized=""/>
    <tripinfo id="12" depart="15.00" departLane="" departPos="0.00" departSpeed="16.06" departDelay="7.00" arrival="103.00" arrivalLane="" arrivalPos="90.46" arrivalSpeed="26.98" duration="88.00" routeLength="1188.76" waitingTime="0.00" waitingCount="0" stopTime="0.00" timeLoss="17.81" rerouteNo="0" devices="tripinfo_12" vType="DEFAULT_VEHTYPE" speedFactor="1.09" vaporized=""/>
    <tripinfo id="14" depart="18.00" departLane="" departPos="0.00" departSpeed="16.04" departDelay="7.00" arrival="104.00" arrivalLane="" arrivalPos="90.46" arrivalSpeed="27.39" duration="86.00" routeLength="1188.76" waitingTime="0.00" waitingCount="0" stopTime="0.00" timeLoss="13.31" rerouteNo="0" devices="tripinfo_14" vType="DEFAULT_VEHTYPE" speedFactor="1.05" vaporized=""/>
    <tripinfo id="15" depart="20.00" departLane="" departPos="0.00" departSpeed="17.09" departDelay="8.00" arrival="105.00" arrivalLane="" arrivalPos="90.46" arrivalSpeed="27.81" duration="85.00" routeLength="1188.76" waitingTime="0.37" waitingCount="0" stopTime="0.00" timeLoss="17.56" rerouteNo="0" devices="tripinfo_15" vType="DEFAULT_VEHTYPE" speedFactor="1.12" vaporized=""/>
    <tripinfo id="11" depart="14.00" departLane="" departPos="0.00" departSpeed="17.14" departDelay="6.00" arrival="107.00" arrivalLane="" arrivalPos="90.46" arrivalSpeed="25.71" duration="93.00" routeLength="1190.91" waitingTime="0.01" waitingCount="0" stopTime="0.00" timeLoss="0.01" rerouteNo="0" devices="tripinfo_11" vType="DEFAULT_VEHTYPE" speedFactor="0.86" vaporized=""/>
    <tripinfo id="17" depart="24.00" departLane="" departPos="0.00" departSpeed="18.54" departDelay="11.00" arrival="108.00" arrivalLane="" arrivalPos="90.46" arrivalSpeed="25.70" duration="84.00" routeLength="1188.76" waitingTime="1.33" waitingCount="0" stopTime="0.00" timeLoss="2.36" rerouteNo="0" devices="tripinfo_17" vType="DEFAULT_VEHTYPE" speedFactor="0.93" vaporized=""/>
    <tripinfo id="13" depart="17.00" departLane="" departPos="0.00" departSpeed="17.12" departDelay="7.00" arrival="110.00" arrivalLane="" arrivalPos="90.46" arrivalSpeed="25.69" duration="93.00" routeLength="1190.91" waitingTime="1.33" waitingCount="0" stopTime="0.00" timeLoss="15.03" rerouteNo="0" devices="tripinfo_13" vType="DEFAULT_VEHTYPE" speedFactor="1.03" vaporized=""/>
    <tripinfo id="16" depart="22.00" departLane="" departPos="0.00" departSpeed="18.30" departDelay="10.00" arrival="111.00" arrivalLane="" arrivalPos="90.46" arrivalSpeed="29.74" duration="89.00" routeLength="1190.91" waitingTime="0.00" waitingCount="0" stopTime="0.00" timeLoss="8.70" rerouteNo="0" devices="tripinfo_16" vType="DEFAULT_VEHTYPE" speedFactor="0.99" vaporized=""/>
    <tripinfo id="18" depart="25.00" departLane="" departPos="0.00" departSpeed="17.28" departDelay="12.00" arrival="113.00" arrivalLane="" arrivalPos="90.46" arrivalSpeed="26.35" duration="88.00" routeLength="1188.76" waitingTime="1.29" waitingCount="0" stopTime="0.00" timeLoss="1.41" rerouteNo="0" devices="tripinfo_18" vType="DEFAULT_VEHTYPE" speedFactor="0.88" vaporized=""/>
    <tripinfo id="19" depart="27.00" departLane="" departPos="0.00" departSpeed="18.51" departDelay="12.00" arrival="114.00" arrivalLane="" arrivalPos="90.46" arrivalSpeed="26.34" duration="87.00" routeLength="1190.91" waitingTime="0.88" waitingCount="0" stopTime="0.00" timeLoss="2.62" rerouteNo="0" devices="tripinfo_19" vType="DEFAULT_VEHTYPE" speedFactor="0.94" vaporized=""/>
    <tripinfo id="20" depart="28.00" departLane="" departPos="0.00" departSpeed="17.26" departDelay="13.00" arrival="116.00" arrivalLane="" arrivalPos="90.46" arrivalSpeed="26.33" duration="88.00" routeLength="1188.76" waitingTime="1.33" waitingCount="0" stopTime="0.00" timeLoss="6.48" rerouteNo="0" devices="tripinfo_20" vType="DEFAULT_VEHTYPE" speedFactor="0.94" vaporized=""/>
    <tripinfo id="21" depart="30.00" departLane="" departPos="0.00" departSpeed="18.48" departDelay="14.00" arrival="117.00" arrivalLane="" arrivalPos="90.46" arrivalSpeed="26.33" duration="87.00" routeLength="1190.91" waitingTime="1.33" waitingCount="0" stopTime="0.00" timeLoss="18.13" rerouteNo="0" devices="tripinfo_21" vType="DEFAULT_VEHTYPE" speedFactor="1.16" vaporized=""/>
    <tripinfo id="22" depart="31.00" departLane="" departPos="0.00" departSpeed="17.23" departDelay="14.00" arrival="118.00" arrivalLane="" arrivalPos="90.46" arrivalSpeed="26.32" duration="87.00" routeLength="1188.76" waitingTime="1.33" waitingCount="0" stopTime="0.00" timeLoss="12.73" rerouteNo="0" devices="tripinfo_22" vType="DEFAULT_VEHTYPE" speedFactor="1.02" vaporized=""/>
    <tripinfo id="23" depart="33.00" departLane="" departPos="0.00" departSpeed="18.46" departDelay="15.00" arrival="120.00" arrivalLane="" arrivalPos="90.46" arrivalSpeed="26.31" duration="87.00" routeLength="1190.91" waitingTime="0.88" waitingCount="0" stopTime="0.00" timeLoss="7.87" rerouteNo="0" devices="tripinfo_23" vType="DEFAULT_VEHTYPE" speedFactor="1.01" vaporized=""/>
    <tripinfo id="24" depart="35.00" departLane="" departPos="0.00" departSpeed="19.50" departDelay="15.00" arrival="121.00" arrivalLane="" arrivalPos="90.46" arrivalSpeed="26.30" duration="86.00" routeLength="1188.76" waitingTime="1.33" waitingCount="0" stopTime="0.00" timeLoss="8.21" rerouteNo="0" devices="tripinfo_24" vType="DEFAULT_VEHTYPE" speedFactor="0.97" vaporized=""/>
    <tripinfo id="29" depart="42.00" departLane="" departPos="0.00" departSpeed="15.49" departDelay="18.00" arrival="124.00" arrivalLane="" arrivalPos="90.46" arrivalSpeed="28.46" duration="82.00" routeLength="1188.76" waitingTime="0.00" waitingCount="0" stopTime="0.00" timeLoss="1.53" rerouteNo="0" devices="tripinfo_29" vType="DEFAULT_VEHTYPE" speedFactor="0.95" vaporized=""/>
    <tripinfo id="25" depart="36.00" departLane="" departPos="0.00" departSpeed="17.79" departDelay="13.00" arrival="126.00" arrivalLane="" arrivalPos="90.46" arrivalSpeed="26.68" duration="90.00" routeLength="1190.91" waitingTime="0.00" waitingCount="0" stopTime="0.00" timeLoss="0.12" rerouteNo="0" devices="tripinfo_25" vType="DEFAULT_VEHTYPE" speedFactor="0.89" vaporized=""/>
    <tripinfo id="31" depart="46.00" departLane="" departPos="0.00" departSpeed="17.59" departDelay="21.00" arrival="128.00" arrivalLane="" arrivalPos="90.46" arrivalSpeed="27.94" duration="82.00" routeLength="1188.76" waitingTime="0.00" waitingCount="0" stopTime="0.00" timeLoss="0.41" rerouteNo="0" devices="tripinfo_31" vType="DEFAULT_VEHTYPE" speedFactor="0.93" vaporized=""/>
    <tripinfo id="32" depart="48.00" departLane="" departPos="0.00" departSpeed="18.86" departDelay="20.00" arrival="129.00" arrivalLane="" arrivalPos="90.46" arrivalSpeed="28.38" duration="81.00" routeLength="1188.76" waitingTime="0.37" waitingCount="0" stopTime="0.00" timeLoss="16.80" rerouteNo="0" devices="tripinfo_32" vType="DEFAULT_VEHTYPE" speedFactor="1.18" vaporized=""/>
    <tripinfo id="33" depart="49.00" departLane="" departPos="0.00" departSpeed="17.56" departDelay="21.00" arrival="131.00" arrivalLane="" arrivalPos="90.46" arrivalSpeed="28.83" duration="82.00" routeLength="1188.76" waitingTime="0.37" waitingCount="0" stopTime="0.00" timeLoss="15.84" rerouteNo="0" devices="tripinfo_33" vType="DEFAULT_VEHTYPE" speedFactor="1.15" vaporized=""/>
    <tripinfo id="35" depart="52.00" departLane="" departPos="0.00" departSpeed="17.54" departDelay="23.00" arrival="132.00" arrivalLane="" arrivalPos="90.46" arrivalSpeed="29.29" duration="80.00" routeLength="1188.76" waitingTime="0.00" waitingCount="0" stopTime="0.00" timeLoss="15.19" rerouteNo="0" devices="tripinfo_35" vType="DEFAULT_VEHTYPE" speedFactor="1.17" vaporized=""/>
    <tripinfo id="37" depart="56.00" departLane="" departPos="0.00" departSpeed="20.27" departDelay="23.00" arrival="134.00" arrivalLane="" arrivalPos="90.46" arrivalSpeed="29.78" duration="78.00" routeLength="1188.76" waitingTime="0.00" waitingCount="0" stopTime="0.00" timeLoss="2.95" rerouteNo="0" devices="tripinfo_37" vType="DEFAULT_VEHTYPE" speedFactor="1.02" vaporized=""/>
    <tripinfo id="26" depart="38.00" departLane="" departPos="0.00" departSpeed="16.51" departDelay="15.00" arrival="136.00" arrivalLane="" arrivalPos="90.46" arrivalSpeed="24.77" duration="98.00" routeLength="1190.91" waitingTime="1.07" waitingCount="0" stopTime="0.00" timeLoss="1.07" rerouteNo="0" devices="tripinfo_26" vType="DEFAULT_VEHTYPE" speedFactor="0.83" vaporized=""/>
    <tripinfo id="39" depart="59.00" departLane="" departPos="0.00" departSpeed="18.08" departDelay="24.00" arrival="137.00" arrivalLane="" arrivalPos="90.46" arrivalSpeed="24.76" duration="78.00" routeLength="1188.76" waitingTime="1.33" waitingCount="0" stopTime="0.00" timeLoss="13.37" rerouteNo="0" devices="tripinfo_39" vType="DEFAULT_VEHTYPE" speedFactor="1.18" vaporized=""/>
    <tripinfo id="27" depart="39.00" departLane="" departPos="0.00" departSpeed="15.51" departDelay="16.00" arrival="138.00" arrivalLane="" arrivalPos="90.46" arrivalSpeed="24.76" duration="99.00" routeLength="1190.91" waitingTime="1.33" waitingCount="0" stopTime="0.00" timeLoss="7.99" rerouteNo="0" devices="tripinfo_27" vType="DEFAULT_VEHTYPE" speedFactor="0.87" vaporized=""/>
    <tripinfo id="40" depart="61.00" departLane="" departPos="0.00" departSpeed="19.43" departDelay="26.00" arrival="140.00" arrivalLane="" arrivalPos="90.46" arrivalSpeed="24.75" duration="79.00" routeLength="1188.76" waitingTime="1.70" waitingCount="0" stopTime="0.00" timeLoss="9.64" rerouteNo="0" devices="tripinfo_40" vType="DEFAULT_VEHTYPE" speedFactor="1.10" vaporized=""/>
    <tripinfo id="28" depart="41.00" departLane="" departPos="0.00" departSpeed="16.49" departDelay="17.00" arrival="141.00" arrivalLane="" arrivalPos="90.46" arrivalSpeed="24.74" duration="100.00" routeLength="1190.91" waitingTime="1.33" waitingCount="0" stopTime="0.00" timeLoss="13.16" rerouteNo="0" devices="tripinfo_28" vType="DEFAULT_VEHTYPE" speedFactor="0.92" vaporized=""/>
    <tripinfo id="30" depart="44.00" departLane="" departPos="0.00" departSpeed="16.47" departDelay="19.00" arrival="142.00" arrivalLane="" arrivalPos="90.46" arrivalSpeed="28.66" duration="98.00" routeLength="1190.91" waitingTime="0.45" waitingCount="0" stopTime="0.00" timeLoss="27.91" rerouteNo="0" devices="tripinfo_30" vType="DEFAULT_VEHTYPE" speedFactor="1.13" vaporized=""/>
    <tripinfo id="34" depart="51.00" departLane="" departPos="0.00" departSpeed="18.83" departDelay="22.00" arrival="144.00" arrivalLane="" arrivalPos="90.46" arrivalSpeed="30.15" duration="93.00" routeLength="1190.91" waitingTime="0.00" waitingCount="0" stopTime="0.00" timeLoss="13.82" rerouteNo="0" devices="tripinfo_34" vType="DEFAULT_VEHTYPE" speedFactor="1.01" vaporized=""/>
    <tripinfo id="36" depart="54.00" departLane="" departPos="0.00" departSpeed="18.81" departDelay="22.00" arrival="146.00" arrivalLane="" arrivalPos="90.46" arrivalSpeed="29.84" duration="92.00" routeLength="1190.91" waitingTime="0.00" waitingCount="0" stopTime="0.00" timeLoss="11.91" rerouteNo="0" devices="tripinfo_36" vType="DEFAULT_VEHTYPE" speedFactor="0.99" vaporized=""/>
    <tripinfo id="41" depart="62.00" departLane="" departPos="0.00" departSpeed="18.01" departDelay="27.00" arrival="148.00" arrivalLane="" arrivalPos="90.46" arrivalSpeed="27.02" duration="86.00" routeLength="1188.76" waitingTime="1.03" waitingCount="0" stopTime="0.00" timeLoss="1.39" rerouteNo="0" devices="tripinfo_41" vType="DEFAULT_VEHTYPE" speedFactor="0.90" vaporized=""/>
    <tripinfo id="38" depart="58.00" departLane="" departPos="0.00" departSpeed="19.46" departDelay="24.00" arrival="149.00" arrivalLane="" arrivalPos="90.46" arrivalSpeed="27.01" duration="91.00" routeLength="1190.91" waitingTime="0.88" waitingCount="0" stopTime="0.00" timeLoss="9.22" rerouteNo="0" devices="tripinfo_38" vType="DEFAULT_VEHTYPE" speedFactor="0.97" vaporized=""/>
    <tripinfo id="42" depart="64.00" departLane="" departPos="0.00" departSpeed="19.35" departDelay="25.00" arrival="150.00" arrivalLane="" arrivalPos="90.46" arrivalSpeed="27.00" duration="86.00" routeLength="1188.76" waitingTime="1.70" waitingCount="0" stopTime="0.00" timeLoss="12.71" rerouteNo="0" devices="tripinfo_42" vType="DEFAULT_VEHTYPE" speedFactor="1.03" vaporized=""/>
    <tripinfo id="43" depart="65.00" departLane="" departPos="0.00" departSpeed="17.99" departDelay="23.00" arrival="152.00" arrivalLane="" arrivalPos="90.46" arrivalSpeed="26.99" duration="87.00" routeLength="1190.91" waitingTime="0.88" waitingCount="0" stopTime="0.00" timeLoss="3.61" rerouteNo="0" devices="tripinfo_43" vType="DEFAULT_VEHTYPE" speedFactor="0.96" vaporized=""/>
    <tripinfo id="44" depart="67.00" departLane="" departPos="0.00" departSpeed="19.32" departDelay="25.00" arrival="153.00" arrivalLane="" arrivalPos="90.46" arrivalSpeed="26.99" duration="86.00" routeLength="1188.76" waitingTime="0.73" waitingCount="0" stopTime="0.00" timeLoss="16.59" rerouteNo="0" devices="tripinfo_44" vType="DEFAULT_VEHTYPE" speedFactor="1.09" vaporized=""/>
    <tripinfo id="47" depart="72.00" departLane="" departPos="0.00" departSpeed="20.84" departDelay="28.00" arrival="155.00" arrivalLane="" arrivalPos="90.46" arrivalSpeed="26.98" duration="83.00" routeLength="1190.91" waitingTime="0.88" waitingCount="0" stopTime="0.00" timeLoss="9.33" rerouteNo="0" devices="tripinfo_47" vType="DEFAULT_VEHTYPE" speedFactor="1.09" vaporized=""/>
    <tripinfo id="45" depart="68.00" departLane="" departPos="0.00" departSpeed="17.96" departDelay="26.00" arrival="156.00" arrivalLane="" arrivalPos="90.46" arrivalSpeed="26.97" duration="88.00" routeLength="1188.76" waitingTime="1.70" waitingCount="0" stopTime="0.00" timeLoss="14.75" rerouteNo="0" devices="tripinfo_45" vType="DEFAULT_VEHTYPE" speedFactor="1.04" vaporized=""/>
    <tripinfo id="46" depart="70.00" departLane="" departPos="0.00" departSpeed="19.30" departDelay="27.00" arrival="157.00" arrivalLane="" arrivalPos="90.46" arrivalSpeed="27.38" duration="87.00" routeLength="1188.76" waitingTime="0.37" waitingCount="0" stopTime="0.00" timeLoss="14.52" rerouteNo="0" devices="tripinfo_46" vType="DEFAULT_VEHTYPE" speedFactor="1.04" vaporized=""/>
    <tripinfo id="48" depart="74.00" departLane="" departPos="0.00" departSpeed="19.95" departDelay="30.00" arrival="159.00" arrivalLane="" arrivalPos="90.46" arrivalSpeed="27.80" duration="85.00" routeLength="1188.76" waitingTime="0.00" waitingCount="0" stopTime="0.00" timeLoss="8.57" rerouteNo="0" devices="tripinfo_48" vType="DEFAULT_VEHTYPE" speedFactor="1.00" vaporized=""/>
    <tripinfo id="50" depart="77.00" departLane="" departPos="0.00" departSpeed="17.54" departDelay="32.00" arrival="164.00" arrivalLane="" arrivalPos="90.46" arrivalSpeed="26.30" duration="87.00" routeLength="1188.76" waitingTime="0.00" waitingCount="0" stopTime="0.00" timeLoss="0.20" rerouteNo="0" devices="tripinfo_50" vType="DEFAULT_VEHTYPE" speedFactor="0.88" vaporized=""/>
    <tripinfo id="49" depart="75.00" departLane="" departPos="0.00" departSpeed="18.01" departDelay="31.00" arrival="165.00" arrivalLane="" arrivalPos="90.46" arrivalSpeed="26.30" duration="90.00" routeLength="1190.91" waitingTime="0.75" waitingCount="0" stopTime="0.00" timeLoss="1.73" rerouteNo="0" devices="tripinfo_49" vType="DEFAULT_VEHTYPE" speedFactor="0.90" vaporized=""/>
    <tripinfo id="57" depart="89.00" departLane="" departPos="0.00" departSpeed="18.25" departDelay="35.00" arrival="167.00" arrivalLane="" arrivalPos="90.46" arrivalSpeed="26.29" duration="78.00" routeLength="1188.76" waitingTime="0.26" waitingCount="0" stopTime="0.00" timeLoss="1.26" rerouteNo="0" devices="tripinfo_57" vType="DEFAULT_VEHTYPE" speedFactor="1.00" vaporized=""/>
    <tripinfo id="51" depart="79.00" departLane="" departPos="0.00" departSpeed="17.01" departDelay="32.00" arrival="173.00" arrivalLane="" arrivalPos="90.46" arrivalSpeed="25.51" duration="94.00" routeLength="1190.91" waitingTime="0.00" waitingCount="0" stopTime="0.00" timeLoss="0.00" rerouteNo="0" devices="tripinfo_51" vType="DEFAULT_VEHTYPE" speedFactor="0.85" vaporized=""/>
    <tripinfo id="52" depart="81.00" departLane="" departPos="0.00" departSpeed="17.10" departDelay="33.00" arrival="175.00" arrivalLane="" arrivalPos="90.46" arrivalSpeed="25.65" duration="94.00" routeLength="1190.91" waitingTime="0.03" waitingCount="0" stopTime="0.00" timeLoss="0.35" rerouteNo="0" devices="tripinfo_52" vType="DEFAULT_VEHTYPE" speedFactor="0.85" vaporized=""/>
    <tripinfo id="58" depart="91.00" departLane="" departPos="0.00" departSpeed="17.98" departDelay="35.00" arrival="176.00" arrivalLane="" arrivalPos="90.46" arrivalSpeed="25.64" duration="85.00" routeLength="1188.76" waitingTime="0.21" waitingCount="0" stopTime="0.00" timeLoss="0.38" rerouteNo="0" devices="tripinfo_58" vType="DEFAULT_VEHTYPE" speedFactor="0.90" vaporized=""/>
    <tripinfo id="53" depart="82.00" departLane="" departPos="0.00" departSpeed="16.02" departDelay="34.00" arrival="177.00" arrivalLane="" arrivalPos="90.46" arrivalSpeed="25.63" duration="95.00" routeLength="1190.91" waitingTime="1.33" waitingCount="0" stopTime="0.00" timeLoss="27.00" rerouteNo="0" devices="tripinfo_53" vType="DEFAULT_VEHTYPE" speedFactor="1.17" vaporized=""/>
    <tripinfo id="60" depart="94.00" departLane="" departPos="0.00" departSpeed="17.95" departDelay="36.00" arrival="179.00" arrivalLane="" arrivalPos="90.46" arrivalSpeed="25.63" duration="85.00" routeLength="1188.76" waitingTime="1.33" waitingCount="0" stopTime="0.00" timeLoss="10.38" rerouteNo="0" devices="tripinfo_60" vType="DEFAULT_VEHTYPE" speedFactor="1.02" vaporized=""/>
    <tripinfo id="54" depart="84.00" departLane="" departPos="0.00" departSpeed="17.07" departDelay="35.00" arrival="180.00" arrivalLane="" arrivalPos="90.46" arrivalSpeed="25.62" duration="96.00" routeLength="1190.91" waitingTime="1.33" waitingCount="0" stopTime="0.00" timeLoss="17.62" rerouteNo="0" devices="tripinfo_54" vType="DEFAULT_VEHTYPE" speedFactor="1.02" vaporized=""/>
    <tripinfo id="62" depart="97.00" departLane="" departPos="0.00" departSpeed="17.93" departDelay="38.00" arrival="181.00" arrivalLane="" arrivalPos="90.46" arrivalSpeed="25.61" duration="84.00" routeLength="1188.76" waitingTime="1.33" waitingCount="0" stopTime="0.00" timeLoss="14.15" rerouteNo="0" devices="tripinfo_62" vType="DEFAULT_VEHTYPE" speedFactor="1.08" vaporized=""/>
    <tripinfo id="55" depart="85.00" departLane="" departPos="0.00" departSpeed="16.00" departDelay="32.00" arrival="183.00" arrivalLane="" arrivalPos="90.46" arrivalSpeed="25.60" duration="98.00" routeLength="1190.91" waitingTime="1.33" waitingCount="0" stopTime="0.00" timeLoss="25.00" rerouteNo="0" devices="tripinfo_55" vType="DEFAULT_VEHTYPE" speedFactor="1.10" vaporized=""/>
    <tripinfo id="64" depart="100.00" departLane="" departPos="0.00" departSpeed="17.90" departDelay="37.00" arrival="184.00" arrivalLane="" arrivalPos="90.46" arrivalSpeed="25.60" duration="84.00" routeLength="1188.76" waitingTime="1.33" waitingCount="0" stopTime="0.00" timeLoss="9.33" rerouteNo="0" devices="tripinfo_64" vType="DEFAULT_VEHTYPE" speedFactor="1.02" vaporized=""/>
    <tripinfo id="56" depart="87.00" departLane="" departPos="0.00" departSpeed="17.05" departDelay="34.00" arrival="186.00" arrivalLane="" arrivalPos="90.46" arrivalSpeed="25.59" duration="99.00" routeLength="1190.91" waitingTime="1.33" waitingCount="0" stopTime="0.00" timeLoss="19.09" rerouteNo="0" devices="tripinfo_56" vType="DEFAULT_VEHTYPE" speedFactor="1.00" vaporized=""/>
    <tripinfo id="65" depart="102.00" departLane="" departPos="0.00" departSpeed="19.23" departDelay="39.00" arrival="187.00" arrivalLane="" arrivalPos="90.46" arrivalSpeed="25.58" duration="85.00" routeLength="1188.76" waitingTime="1.70" waitingCount="0" stopTime="0.00" timeLoss="7.92" rerouteNo="0" devices="tripinfo_65" vType="DEFAULT_VEHTYPE" speedFactor="0.99" vaporized=""/>
    <tripinfo id="59" depart="92.00" departLane="" departPos="0.00" departSpeed="16.79" departDelay="36.00" arrival="188.00" arrivalLane="" arrivalPos="90.46" arrivalSpeed="25.58" duration="96.00" routeLength="1190.91" waitingTime="1.33" waitingCount="0" stopTime="0.00" timeLoss="26.47" rerouteNo="0" devices="tripinfo_59" vType="DEFAULT_VEHTYPE" speedFactor="1.14" vaporized=""/>
    <tripinfo id="66" depart="103.00" departLane="" departPos="0.00" departSpeed="17.88" departDelay="35.00" arrival="190.00" arrivalLane="" arrivalPos="90.46" arrivalSpeed="25.57" duration="87.00" routeLength="1188.76" waitingTime="1.70" waitingCount="0" stopTime="0.00" timeLoss="5.65" rerouteNo="0" devices="tripinfo_66" vType="DEFAULT_VEHTYPE" speedFactor="0.94" vaporized=""/>
    <tripinfo id="61" depart="95.00" departLane="" departPos="0.00" departSpeed="16.77" departDelay="37.00" arrival="191.00" arrivalLane="" arrivalPos="90.46" arrivalSpeed="25.56" duration="96.00" routeLength="1190.91" waitingTime="0.88" waitingCount="0" stopTime="0.00" timeLoss="13.86" rerouteNo="0" devices="tripinfo_61" vType="DEFAULT_VEHTYPE" speedFactor="0.97" vaporized=""/>
    <tripinfo id="69" depart="108.00" departLane="" departPos="0.00" departSpeed="17.62" departDelay="35.00" arrival="192.00" arrivalLane="" arrivalPos="90.46" arrivalSpeed="25.55" duration="84.00" routeLength="1188.76" waitingTime="0.72" waitingCount="0" stopTime="0.00" timeLoss="1.39" rerouteNo="0" devices="tripinfo_69" vType="DEFAULT_VEHTYPE" speedFactor="0.91" vaporized=""/>
    <tripinfo id="63" depart="99.00" departLane="" departPos="0.00" departSpeed="19.26" departDelay="39.00" arrival="194.00" arrivalLane="" arrivalPos="90.46" arrivalSpeed="25.55" duration="95.00" routeLength="1190.91" waitingTime="1.33" waitingCount="0" stopTime="0.00" timeLoss="23.56" rerouteNo="0" devices="tripinfo_63" vType="DEFAULT_VEHTYPE" speedFactor="1.12" vaporized=""/>
    <tripinfo id="70" depart="110.00" departLane="" departPos="0.00" departSpeed="18.90" departDelay="37.00" arrival="195.00" arrivalLane="" arrivalPos="90.46" arrivalSpeed="25.54" duration="85.00" routeLength="1188.76" waitingTime="1.70" waitingCount="0" stopTime="0.00" timeLoss="12.10" rerouteNo="0" devices="tripinfo_70" vType="DEFAULT_VEHTYPE" speedFactor="1.04" vaporized=""/>
    <tripinfo id="67" depart="105.00" departLane="" departPos="0.00" departSpeed="17.65" departDelay="33.00" arrival="197.00" arrivalLane="" arrivalPos="90.46" arrivalSpeed="25.53" duration="92.00" routeLength="1190.91" waitingTime="0.88" waitingCount="0" stopTime="0.00" timeLoss="1.31" rerouteNo="0" devices="tripinfo_67" vType="DEFAULT_VEHTYPE" speedFactor="0.88" vaporized=""/>
    <tripinfo id="72" depart="113.00" departLane="" departPos="0.00" departSpeed="18.88" departDelay="39.00" arrival="198.00" arrivalLane="" arrivalPos="90.46" arrivalSpeed="25.52" duration="85.00" routeLength="1188.76" waitingTime="1.33" waitingCount="0" stopTime="0.00" timeLoss="10.65" rerouteNo="0" devices="tripinfo_72" vType="DEFAULT_VEHTYPE" speedFactor="1.02" vaporized=""/>
    <tripinfo id="68" depart="106.00" departLane="" departPos="0.00" departSpeed="16.50" departDelay="33.00" arrival="199.00" arrivalLane="" arrivalPos="90.46" arrivalSpeed="25.52" duration="93.00" routeLength="1190.91" waitingTime="1.33" waitingCount="0" stopTime="0.00" timeLoss="5.50" rerouteNo="0" devices="tripinfo_68" vType="DEFAULT_VEHTYPE" speedFactor="0.91" vaporized=""/>
    <tripinfo id="73" depart="114.00" departLane="" departPos="0.00" departSpeed="17.57" departDelay="39.00" arrival="201.00" arrivalLane="" arrivalPos="90.46" arrivalSpeed="25.51" duration="87.00" routeLength="1188.76" waitingTime="1.10" waitingCount="0" stopTime="0.00" timeLoss="8.62" rerouteNo="0" devices="tripinfo_73" vType="DEFAULT_VEHTYPE" speedFactor="0.97" vaporized=""/>
    <tripinfo id="71" depart="111.00" departLane="" departPos="0.00" departSpeed="17.60" departDelay="38.00" arrival="202.00" arrivalLane="" arrivalPos="90.46" arrivalSpeed="25.50" duration="91.00" routeLength="1190.91" waitingTime="1.07" waitingCount="0" stopTime="0.00" timeLoss="13.11" rerouteNo="0" devices="tripinfo_71" vType="DEFAULT_VEHTYPE" speedFactor="1.02" vaporized=""/>
    <tripinfo id="74" depart="116.00" departLane="" departPos="0.00" departSpeed="18.80" departDelay="39.00" arrival="203.00" arrivalLane="" arrivalPos="90.46" arrivalSpeed="25.50" duration="87.00" routeLength="1188.76" waitingTime="1.10" waitingCount="0" stopTime="0.00" timeLoss="6.66" rerouteNo="0" devices="tripinfo_74" vType="DEFAULT_VEHTYPE" speedFactor="0.94" vaporized=""/>
    <tripinfo id="75" depart="118.00" departLane="" departPos="0.00" departSpeed="20.27" departDelay="40.00" arrival="205.00" arrivalLane="" arrivalPos="90.46" arrivalSpeed="25.49" duration="87.00" routeLength="1190.91" waitingTime="0.88" waitingCount="0" stopTime="0.00" timeLoss="11.33" rerouteNo="0" devices="tripinfo_75" vType="DEFAULT_VEHTYPE" speedFactor="1.06" vaporized=""/>