<?xml version="1.0" encoding="UTF-8"?>

<!-- generated on 2023-04-30 11:55:47 by Eclipse SUMO sumo Version 1.16.0
<configuration xmlns:xsi="http://www.w3.org/2001/XMLSchema-instance" xsi:noNamespaceSchemaLocation="http://sumo.dlr.de/xsd/sumoConfiguration.xsd">

    <input>
        <net-file value="C:\Users\Local_Man\Desktop\Stolen%20Music\school%20stuff%20for%20college\Semester%2015%20(UH%20Graduate%20School)\COSC%206364%20Nikolaos\SUMO_Project\COSC6364_Project\configurations\maps\4corners_neighborhoods.net.xml"/>
        <route-files value="./configurations/Rounds/4corners_neighborhoods.net.xml-small_test-0/Macroscopic_DUE/002/Trips_File_002.rou.xml"/>
    </input>

    <output>
        <summary-output value="./configurations/Rounds/4corners_neighborhoods.net.xml-small_test-0/Macroscopic_DUE/002/summary.xml"/>
        <tripinfo-output value="./configurations/Rounds/4corners_neighborhoods.net.xml-small_test-0/Macroscopic_DUE/002/trips.trips.xml"/>
        <statistic-output value="./configurations/Rounds/4corners_neighborhoods.net.xml-small_test-0/Macroscopic_DUE/002/stats_output.xml"/>
    </output>

    <time>
        <begin value="0"/>
    </time>

    <report>
        <log value="./configurations/Rounds/4corners_neighborhoods.net.xml-small_test-0/Macroscopic_DUE/002/log.sumo.log"/>
        <no-step-log value="true"/>
    </report>

    <gui_only>
        <quit-on-end value="true"/>
    </gui_only>

</configuration>
-->

<tripinfos xmlns:xsi="http://www.w3.org/2001/XMLSchema-instance" xsi:noNamespaceSchemaLocation="http://sumo.dlr.de/xsd/tripinfo_file.xsd">
    <tripinfo id="24" depart="18.00" departLane="318908683#0_0" departPos="5.10" departSpeed="12.42" departDelay="0.00" arrival="83.00" arrivalLane="422688976#1_0" arrivalPos="294.40" arrivalSpeed="23.97" duration="65.00" routeLength="940.85" waitingTime="13.00" waitingCount="1" stopTime="0.00" timeLoss="23.85" rerouteNo="0" devices="tripinfo_24" vType="DEFAULT_VEHTYPE" speedFactor="0.89" vaporized=""/>
    <tripinfo id="42" depart="27.00" departLane="318908683#0_0" departPos="5.10" departSpeed="14.56" departDelay="0.00" arrival="88.00" arrivalLane="422688976#1_1" arrivalPos="294.40" arrivalSpeed="29.11" duration="61.00" routeLength="940.85" waitingTime="5.00" waitingCount="1" stopTime="0.00" timeLoss="25.81" rerouteNo="0" devices="tripinfo_42" vType="DEFAULT_VEHTYPE" speedFactor="1.05" vaporized=""/>
    <tripinfo id="13" depart="8.00" departLane="422688973_0" departPos="5.10" departSpeed="0.00" departDelay="0.00" arrival="91.00" arrivalLane="-597602753#1_0" arrivalPos="143.59" arrivalSpeed="23.08" duration="83.00" routeLength="1114.81" waitingTime="0.00" waitingCount="0" stopTime="0.00" timeLoss="19.80" rerouteNo="0" devices="tripinfo_13" vType="DEFAULT_VEHTYPE" speedFactor="1.04" vaporized=""/>
    <tripinfo id="16" depart="11.00" departLane="597602756#0_0" departPos="5.10" departSpeed="22.45" departDelay="0.00" arrival="94.00" arrivalLane="260998164#0_0" arrivalPos="257.55" arrivalSpeed="27.09" duration="83.00" routeLength="1239.91" waitingTime="0.00" waitingCount="0" stopTime="0.00" timeLoss="10.74" rerouteNo="0" devices="tripinfo_16" vType="DEFAULT_VEHTYPE" speedFactor="1.01" vaporized=""/>
    <tripinfo id="4" depart="2.00" departLane="422685671#2_0" departPos="5.10" departSpeed="29.94" departDelay="0.00" arrival="95.00" arrivalLane="918280984_0" arrivalPos="38.78" arrivalSpeed="13.83" duration="93.00" routeLength="1069.78" waitingTime="39.00" waitingCount="1" stopTime="0.00" timeLoss="52.53" rerouteNo="0" devices="tripinfo_4" vType="DEFAULT_VEHTYPE" speedFactor="1.08" vaporized=""/>
    <tripinfo id="3" depart="1.00" departLane="597602756#0_0" departPos="5.10" departSpeed="24.06" departDelay="0.00" arrival="97.00" arrivalLane="-597602753#1_0" arrivalPos="143.59" arrivalSpeed="22.86" duration="96.00" routeLength="1638.96" waitingTime="9.00" waitingCount="1" stopTime="0.00" timeLoss="26.69" rerouteNo="0" devices="tripinfo_3" vType="DEFAULT_VEHTYPE" speedFactor="1.08" vaporized=""/>
    <tripinfo id="21" depart="14.00" departLane="318908683#0_0" departPos="5.10" departSpeed="14.01" departDelay="0.00" arrival="97.00" arrivalLane="918280984_0" arrivalPos="38.78" arrivalSpeed="13.14" duration="83.00" routeLength="693.58" waitingTime="36.00" waitingCount="2" stopTime="0.00" timeLoss="52.47" rerouteNo="0" devices="tripinfo_21" vType="DEFAULT_VEHTYPE" speedFactor="1.01" vaporized=""/>
    <tripinfo id="9" depart="4.00" departLane="-260998164#3_0" departPos="5.10" departSpeed="30.30" departDelay="0.00" arrival="99.00" arrivalLane="-597602753#1_0" arrivalPos="143.59" arrivalSpeed="24.04" duration="95.00" routeLength="1969.75" waitingTime="0.00" waitingCount="0" stopTime="0.00" timeLoss="19.38" rerouteNo="0" devices="tripinfo_9" vType="DEFAULT_VEHTYPE" speedFactor="1.09" vaporized=""/>
    <tripinfo id="11" depart="7.00" departLane="-260998164#3_0" departPos="5.10" departSpeed="25.64" departDelay="0.00" arrival="100.00" arrivalLane="15374898#0-AddedOffRampEdge_1" arrivalPos="100.00" arrivalSpeed="24.95" duration="93.00" routeLength="1332.80" waitingTime="30.00" waitingCount="1" stopTime="0.00" timeLoss="40.52" rerouteNo="0" devices="tripinfo_11" vType="DEFAULT_VEHTYPE" speedFactor="0.92" vaporized=""/>
    <tripinfo id="53" depart="35.00" departLane="318908683#0_0" departPos="5.10" departSpeed="12.60" departDelay="0.00" arrival="100.00" arrivalLane="918280984_0" arrivalPos="38.78" arrivalSpeed="11.30" duration="65.00" routeLength="693.58" waitingTime="14.00" waitingCount="2" stopTime="0.00" timeLoss="30.61" rerouteNo="0" devices="tripinfo_53" vType="DEFAULT_VEHTYPE" speedFactor="0.91" vaporized=""/>
    <tripinfo id="14" depart="8.00" departLane="-260998164#3_0" departPos="5.10" departSpeed="23.25" departDelay="0.00" arrival="103.00" arrivalLane="15374898#0-AddedOffRampEdge_0" arrivalPos="100.00" arrivalSpeed="23.75" duration="95.00" routeLength="1332.80" waitingTime="30.00" waitingCount="1" stopTime="0.00" timeLoss="40.87" rerouteNo="0" devices="tripinfo_14" vType="DEFAULT_VEHTYPE" speedFactor="0.90" vaporized=""/>
    <tripinfo id="6" depart="2.00" departLane="-260998164#3_0" departPos="5.10" departSpeed="33.35" departDelay="0.00" arrival="106.00" arrivalLane="918280984_0" arrivalPos="38.78" arrivalSpeed="15.41" duration="104.00" routeLength="1465.15" waitingTime="42.00" waitingCount="1" stopTime="0.00" timeLoss="56.27" rerouteNo="0" devices="tripinfo_6" vType="DEFAULT_VEHTYPE" speedFactor="1.20" vaporized=""/>
    <tripinfo id="19" depart="14.00" departLane="-260998164#3_0" departPos="5.10" departSpeed="24.71" departDelay="0.00" arrival="106.00" arrivalLane="-318908683#1_0" arrivalPos="71.22" arrivalSpeed="11.68" duration="92.00" routeLength="955.07" waitingTime="40.00" waitingCount="1" stopTime="0.00" timeLoss="48.12" rerouteNo="0" devices="tripinfo_19" vType="DEFAULT_VEHTYPE" speedFactor="0.89" vaporized=""/>
    <tripinfo id="10" depart="7.00" departLane="105681660#12_0" departPos="5.10" departSpeed="24.95" departDelay="0.00" arrival="109.00" arrivalLane="-597602756#0_0" arrivalPos="325.99" arrivalSpeed="24.77" duration="102.00" routeLength="1877.95" waitingTime="0.00" waitingCount="0" stopTime="0.00" timeLoss="24.15" rerouteNo="0" devices="tripinfo_10" vType="DEFAULT_VEHTYPE" speedFactor="1.12" vaporized=""/>
    <tripinfo id="26" depart="19.00" departLane="422685671#2_1" departPos="5.10" departSpeed="27.64" departDelay="0.00" arrival="115.00" arrivalLane="260998164#0_0" arrivalPos="257.55" arrivalSpeed="27.22" duration="96.00" routeLength="1329.43" waitingTime="37.00" waitingCount="1" stopTime="0.00" timeLoss="47.37" rerouteNo="0" devices="tripinfo_26" vType="DEFAULT_VEHTYPE" speedFactor="0.99" vaporized=""/>
    <tripinfo id="23" depart="15.00" departLane="422685671#2_0" departPos="5.10" departSpeed="28.67" departDelay="0.00" arrival="116.00" arrivalLane="260998164#0_0" arrivalPos="257.55" arrivalSpeed="28.58" duration="101.00" routeLength="1329.43" waitingTime="41.00" waitingCount="1" stopTime="0.00" timeLoss="54.54" rerouteNo="0" devices="tripinfo_23" vType="DEFAULT_VEHTYPE" speedFactor="1.03" vaporized=""/>
    <tripinfo id="25" depart="20.00" departLane="105681660#12_0" departPos="5.10" departSpeed="23.79" departDelay="1.00" arrival="118.00" arrivalLane="918280984_0" arrivalPos="38.78" arrivalSpeed="14.86" duration="98.00" routeLength="1405.13" waitingTime="4.00" waitingCount="1" stopTime="0.00" timeLoss="25.57" rerouteNo="0" devices="tripinfo_25" vType="DEFAULT_VEHTYPE" speedFactor="1.12" vaporized=""/>
    <tripinfo id="29" depart="20.00" departLane="422688973_0" departPos="5.10" departSpeed="15.75" departDelay="0.00" arrival="120.00" arrivalLane="15374898#0-AddedOffRampEdge_0" arrivalPos="100.00" arrivalSpeed="28.32" duration="100.00" routeLength="1006.54" waitingTime="41.00" waitingCount="1" stopTime="0.00" timeLoss="63.31" rerouteNo="0" devices="tripinfo_29" vType="DEFAULT_VEHTYPE" speedFactor="1.02" vaporized=""/>
    <tripinfo id="15" depart="11.00" departLane="597602753#0_0" departPos="5.10" departSpeed="24.06" departDelay="0.00" arrival="123.00" arrivalLane="422688976#1_0" arrivalPos="294.40" arrivalSpeed="29.05" duration="112.00" routeLength="1286.53" waitingTime="24.00" waitingCount="1" stopTime="0.00" timeLoss="39.11" rerouteNo="0" devices="tripinfo_15" vType="DEFAULT_VEHTYPE" speedFactor="1.08" vaporized=""/>
    <tripinfo id="41" depart="26.00" departLane="422688973_2" departPos="5.10" departSpeed="0.24" departDelay="0.00" arrival="124.00" arrivalLane="-318908683#1_0" arrivalPos="71.22" arrivalSpeed="14.96" duration="98.00" routeLength="684.23" waitingTime="43.00" waitingCount="2" stopTime="0.00" timeLoss="73.80" rerouteNo="0" devices="tripinfo_41" vType="DEFAULT_VEHTYPE" speedFactor="1.17" vaporized=""/>
    <tripinfo id="45" depart="31.00" departLane="422688973_2" departPos="5.10" departSpeed="0.24" departDelay="0.00" arrival="124.00" arrivalLane="15374898#0-AddedOffRampEdge_0" arrivalPos="100.00" arrivalSpeed="26.25" duration="93.00" routeLength="1006.54" waitingTime="29.00" waitingCount="1" stopTime="0.00" timeLoss="54.35" rerouteNo="0" devices="tripinfo_45" vType="DEFAULT_VEHTYPE" speedFactor="0.96" vaporized=""/>
    <tripinfo id="18" depart="12.00" departLane="597602753#0_0" departPos="5.10" departSpeed="21.61" departDelay="0.00" arrival="127.00" arrivalLane="-597602756#0_0" arrivalPos="325.99" arrivalSpeed="21.90" duration="115.00" routeLength="1646.04" waitingTime="21.00" waitingCount="1" stopTime="0.00" timeLoss="41.71" rerouteNo="0" devices="tripinfo_18" vType="DEFAULT_VEHTYPE" speedFactor="1.03" vaporized=""/>
    <tripinfo id="76" depart="72.00" departLane="422688973_0" departPos="5.10" departSpeed="11.38" departDelay="0.00" arrival="127.00" arrivalLane="15374898#0-AddedOffRampEdge_0" arrivalPos="100.00" arrivalSpeed="31.60" duration="55.00" routeLength="1006.54" waitingTime="0.00" waitingCount="0" stopTime="0.00" timeLoss="22.70" rerouteNo="0" devices="tripinfo_76" vType="DEFAULT_VEHTYPE" speedFactor="1.14" vaporized=""/>
    <tripinfo id="38" depart="25.00" departLane="597602753#0_0" departPos="5.10" departSpeed="23.64" departDelay="0.00" arrival="129.00" arrivalLane="-597602756#0_0" arrivalPos="325.99" arrivalSpeed="23.50" duration="104.00" routeLength="1646.04" waitingTime="16.00" waitingCount="1" stopTime="0.00" timeLoss="33.09" rerouteNo="0" devices="tripinfo_38" vType="DEFAULT_VEHTYPE" speedFactor="1.06" vaporized=""/>
    <tripinfo id="50" depart="33.00" departLane="318908683#0_0" departPos="5.10" departSpeed="13.86" departDelay="0.00" arrival="129.00" arrivalLane="-597602753#1_0" arrivalPos="143.59" arrivalSpeed="21.99" duration="96.00" routeLength="1208.14" waitingTime="16.00" waitingCount="2" stopTime="0.00" timeLoss="39.26" rerouteNo="0" devices="tripinfo_50" vType="DEFAULT_VEHTYPE" speedFactor="1.00" vaporized=""/>
    <tripinfo id="7" depart="2.00" departLane="105681660#12_0" departPos="5.10" departSpeed="23.24" departDelay="0.00" arrival="133.00" arrivalLane="260998164#0_0" arrivalPos="257.55" arrivalSpeed="28.87" duration="131.00" routeLength="2169.41" waitingTime="4.00" waitingCount="2" stopTime="0.00" timeLoss="29.18" rerouteNo="0" devices="tripinfo_7" vType="DEFAULT_VEHTYPE" speedFactor="1.05" vaporized=""/>
    <tripinfo id="20" depart="14.00" departLane="918280985_0" departPos="5.10" departSpeed="12.12" departDelay="0.00" arrival="134.00" arrivalLane="-105681660#20_0" arrivalPos="806.12" arrivalSpeed="18.16" duration="120.00" routeLength="1360.98" waitingTime="20.00" waitingCount="1" stopTime="0.00" timeLoss="32.19" rerouteNo="0" devices="tripinfo_20" vType="DEFAULT_VEHTYPE" speedFactor="0.87" vaporized=""/>
    <tripinfo id="35" depart="24.00" departLane="597602756#0_0" departPos="5.10" departSpeed="23.68" departDelay="0.00" arrival="134.00" arrivalLane="-597602753#1_0" arrivalPos="143.59" arrivalSpeed="22.79" duration="110.00" routeLength="1638.96" waitingTime="29.00" waitingCount="1" stopTime="0.00" timeLoss="39.64" rerouteNo="0" devices="tripinfo_35" vType="DEFAULT_VEHTYPE" speedFactor="1.07" vaporized=""/>
    <tripinfo id="58" depart="48.00" departLane="597602753#0_0" departPos="5.10" departSpeed="24.84" departDelay="0.00" arrival="139.00" arrivalLane="-105681660#20_0" arrivalPos="806.12" arrivalSpeed="24.63" duration="91.00" routeLength="1387.70" waitingTime="16.00" waitingCount="1" stopTime="0.00" timeLoss="34.07" rerouteNo="0" devices="tripinfo_58" vType="DEFAULT_VEHTYPE" speedFactor="1.12" vaporized=""/>
    <tripinfo id="12" depart="9.00" departLane="-260998164#3_0" departPos="5.10" departSpeed="21.63" departDelay="1.00" arrival="151.00" arrivalLane="422688976#1_0" arrivalPos="294.40" arrivalSpeed="25.69" duration="142.00" routeLength="1702.46" waitingTime="51.00" waitingCount="2" stopTime="0.00" timeLoss="75.02" rerouteNo="0" devices="tripinfo_12" vType="DEFAULT_VEHTYPE" speedFactor="0.93" vaporized=""/>
    <tripinfo id="39" depart="25.00" departLane="-260998164#3_0" departPos="5.10" departSpeed="28.36" departDelay="0.00" arrival="151.00" arrivalLane="422688976#1_1" arrivalPos="294.40" arrivalSpeed="27.33" duration="126.00" routeLength="1702.46" waitingTime="41.00" waitingCount="1" stopTime="0.00" timeLoss="65.10" rerouteNo="0" devices="tripinfo_39" vType="DEFAULT_VEHTYPE" speedFactor="1.02" vaporized=""/>
    <tripinfo id="77" depart="74.00" departLane="105681660#12_0" departPos="5.10" departSpeed="21.51" departDelay="0.00" arrival="151.00" arrivalLane="-597602753#1_0" arrivalPos="143.59" arrivalSpeed="20.39" duration="77.00" routeLength="1380.56" waitingTime="0.00" waitingCount="0" stopTime="0.00" timeLoss="10.92" rerouteNo="0" devices="tripinfo_77" vType="DEFAULT_VEHTYPE" speedFactor="0.97" vaporized=""/>
    <tripinfo id="5" depart="2.00" departLane="918280985_0" departPos="5.10" departSpeed="13.03" departDelay="0.00" arrival="154.00" arrivalLane="-597602756#0_0" arrivalPos="325.99" arrivalSpeed="20.63" duration="152.00" routeLength="1891.55" waitingTime="31.00" waitingCount="1" stopTime="0.00" timeLoss="52.58" rerouteNo="0" devices="tripinfo_5" vType="DEFAULT_VEHTYPE" speedFactor="0.94" vaporized=""/>
    <tripinfo id="27" depart="19.00" departLane="597602753#0_0" departPos="5.10" departSpeed="21.52" departDelay="0.00" arrival="154.00" arrivalLane="422688976#1_1" arrivalPos="294.40" arrivalSpeed="26.82" duration="135.00" routeLength="1788.22" waitingTime="24.00" waitingCount="3" stopTime="0.00" timeLoss="57.89" rerouteNo="0" devices="tripinfo_27" vType="DEFAULT_VEHTYPE" speedFactor="0.97" vaporized=""/>
    <tripinfo id="2" depart="0.00" departLane="918280985_0" departPos="5.10" departSpeed="13.55" departDelay="0.00" arrival="156.00" arrivalLane="-597602753#1_0" arrivalPos="143.59" arrivalSpeed="21.02" duration="156.00" routeLength="1072.66" waitingTime="64.00" waitingCount="2" stopTime="0.00" timeLoss="81.00" rerouteNo="0" devices="tripinfo_2" vType="DEFAULT_VEHTYPE" speedFactor="0.98" vaporized=""/>
    <tripinfo id="44" depart="30.00" departLane="597602753#0_0" departPos="5.10" departSpeed="24.46" departDelay="0.00" arrival="157.00" arrivalLane="260998164#0_0" arrivalPos="257.55" arrivalSpeed="30.37" duration="127.00" routeLength="1937.50" waitingTime="12.00" waitingCount="1" stopTime="0.00" timeLoss="40.98" rerouteNo="0" devices="tripinfo_44" vType="DEFAULT_VEHTYPE" speedFactor="1.10" vaporized=""/>
    <tripinfo id="43" depart="51.00" departLane="918280985_0" departPos="5.10" departSpeed="2.47" departDelay="24.00" arrival="158.00" arrivalLane="-597602753#1_0" arrivalPos="143.59" arrivalSpeed="22.23" duration="107.00" routeLength="1072.66" waitingTime="12.00" waitingCount="1" stopTime="0.00" timeLoss="34.21" rerouteNo="0" devices="tripinfo_43" vType="DEFAULT_VEHTYPE" speedFactor="1.00" vaporized=""/>
    <tripinfo id="8" depart="3.00" departLane="105681660#12_0" departPos="5.10" departSpeed="21.02" departDelay="0.00" arrival="159.00" arrivalLane="422688976#1_1" arrivalPos="294.40" arrivalSpeed="27.32" duration="156.00" routeLength="2020.13" waitingTime="31.00" waitingCount="3" stopTime="0.00" timeLoss="71.35" rerouteNo="0" devices="tripinfo_8" vType="DEFAULT_VEHTYPE" speedFactor="1.02" vaporized=""/>
    <tripinfo id="64" depart="60.00" departLane="422685671#2_0" departPos="5.10" departSpeed="30.06" departDelay="0.00" arrival="159.00" arrivalLane="-597602756#0_0" arrivalPos="325.99" arrivalSpeed="23.56" duration="99.00" routeLength="1760.65" waitingTime="0.00" waitingCount="0" stopTime="0.00" timeLoss="19.98" rerouteNo="0" devices="tripinfo_64" vType="DEFAULT_VEHTYPE" speedFactor="1.08" vaporized=""/>
    <tripinfo id="52" depart="35.00" departLane="-260998164#3_0" departPos="5.10" departSpeed="26.66" departDelay="0.00" arrival="161.00" arrivalLane="918280984_0" arrivalPos="38.78" arrivalSpeed="12.49" duration="126.00" routeLength="1465.15" waitingTime="49.00" waitingCount="2" stopTime="0.00" timeLoss="66.68" rerouteNo="0" devices="tripinfo_52" vType="DEFAULT_VEHTYPE" speedFactor="0.96" vaporized=""/>
    <tripinfo id="60" depart="51.00" departLane="318908683#0_0" departPos="5.10" departSpeed="12.76" departDelay="0.00" arrival="161.00" arrivalLane="422688976#1_1" arrivalPos="294.40" arrivalSpeed="25.40" duration="110.00" routeLength="940.85" waitingTime="53.00" waitingCount="1" stopTime="0.00" timeLoss="69.96" rerouteNo="0" devices="tripinfo_60" vType="DEFAULT_VEHTYPE" speedFactor="0.92" vaporized=""/>
    <tripinfo id="56" depart="54.00" departLane="918280985_0" departPos="5.10" departSpeed="5.63" departDelay="12.00" arrival="162.00" arrivalLane="-597602753#1_0" arrivalPos="143.59" arrivalSpeed="19.64" duration="108.00" routeLength="1072.66" waitingTime="9.00" waitingCount="1" stopTime="0.00" timeLoss="29.14" rerouteNo="0" devices="tripinfo_56" vType="DEFAULT_VEHTYPE" speedFactor="0.93" vaporized=""/>
    <tripinfo id="63" depart="59.00" departLane="597602753#0_0" departPos="5.10" departSpeed="22.60" departDelay="0.00" arrival="162.00" arrivalLane="-597602756#0_0" arrivalPos="325.99" arrivalSpeed="22.47" duration="103.00" routeLength="1646.04" waitingTime="10.00" waitingCount="1" stopTime="0.00" timeLoss="28.72" rerouteNo="0" devices="tripinfo_63" vType="DEFAULT_VEHTYPE" speedFactor="1.02" vaporized=""/>
    <tripinfo id="75" depart="71.00" departLane="422688973_1" departPos="5.10" departSpeed="11.09" departDelay="0.00" arrival="162.00" arrivalLane="-105681660#20_0" arrivalPos="806.12" arrivalSpeed="24.08" duration="91.00" routeLength="1352.23" waitingTime="9.00" waitingCount="1" stopTime="0.00" timeLoss="22.62" rerouteNo="0" devices="tripinfo_75" vType="DEFAULT_VEHTYPE" speedFactor="1.10" vaporized=""/>
    <tripinfo id="40" depart="25.00" departLane="422685671#2_2" departPos="5.10" departSpeed="24.36" departDelay="0.00" arrival="164.00" arrivalLane="918280984_0" arrivalPos="38.78" arrivalSpeed="11.39" duration="139.00" routeLength="1069.78" waitingTime="67.00" waitingCount="3" stopTime="0.00" timeLoss="89.06" rerouteNo="0" devices="tripinfo_40" vType="DEFAULT_VEHTYPE" speedFactor="0.88" vaporized=""/>
    <tripinfo id="49" depart="32.00" departLane="105681660#12_0" departPos="5.10" departSpeed="22.74" departDelay="0.00" arrival="165.00" arrivalLane="918280984_0" arrivalPos="38.78" arrivalSpeed="13.53" duration="133.00" routeLength="1772.86" waitingTime="23.00" waitingCount="3" stopTime="0.00" timeLoss="54.94" rerouteNo="0" devices="tripinfo_49" vType="DEFAULT_VEHTYPE" speedFactor="1.02" vaporized=""/>
    <tripinfo id="95" depart="94.00" departLane="318908683#0_0" departPos="5.10" departSpeed="8.48" departDelay="0.00" arrival="165.00" arrivalLane="260998164#0_0" arrivalPos="257.55" arrivalSpeed="27.88" duration="71.00" routeLength="939.98" waitingTime="23.00" waitingCount="1" stopTime="0.00" timeLoss="34.70" rerouteNo="0" devices="tripinfo_95" vType="DEFAULT_VEHTYPE" speedFactor="1.02" vaporized=""/>
    <tripinfo id="17" depart="11.00" departLane="105681660#12_0" departPos="5.10" departSpeed="20.80" departDelay="0.00" arrival="166.00" arrivalLane="15374898#0-AddedOffRampEdge_0" arrivalPos="100.00" arrivalSpeed="25.33" duration="155.00" routeLength="2308.55" waitingTime="5.00" waitingCount="1" stopTime="0.00" timeLoss="34.47" rerouteNo="0" devices="tripinfo_17" vType="DEFAULT_VEHTYPE" speedFactor="0.94" vaporized=""/>
    <tripinfo id="79" depart="75.00" departLane="422688973_2" departPos="5.10" departSpeed="13.21" departDelay="0.00" arrival="166.00" arrivalLane="-105681660#20_0" arrivalPos="806.12" arrivalSpeed="23.88" duration="91.00" routeLength="1352.23" waitingTime="5.00" waitingCount="1" stopTime="0.00" timeLoss="21.27" rerouteNo="0" devices="tripinfo_79" vType="DEFAULT_VEHTYPE" speedFactor="1.08" vaporized=""/>
    <tripinfo id="82" depart="77.00" departLane="318908683#0_0" departPos="5.10" departSpeed="12.50" departDelay="0.00" arrival="167.00" arrivalLane="918280984_0" arrivalPos="38.78" arrivalSpeed="12.52" duration="90.00" routeLength="693.58" waitingTime="39.00" waitingCount="2" stopTime="0.00" timeLoss="58.41" rerouteNo="0" devices="tripinfo_82" vType="DEFAULT_VEHTYPE" speedFactor="0.98" vaporized=""/>
    <tripinfo id="57" depart="44.00" departLane="597602753#0_0" departPos="5.10" departSpeed="23.46" departDelay="0.00" arrival="169.00" arrivalLane="918280984_0" arrivalPos="38.78" arrivalSpeed="13.95" duration="125.00" routeLength="1540.95" waitingTime="20.00" waitingCount="2" stopTime="0.00" timeLoss="59.58" rerouteNo="0" devices="tripinfo_57" vType="DEFAULT_VEHTYPE" speedFactor="1.06" vaporized=""/>
    <tripinfo id="85" depart="80.00" departLane="918280985_0" departPos="5.10" departSpeed="10.50" departDelay="0.00" arrival="169.00" arrivalLane="15374898#0-AddedOffRampEdge_0" arrivalPos="100.00" arrivalSpeed="22.80" duration="89.00" routeLength="996.81" waitingTime="24.00" waitingCount="1" stopTime="0.00" timeLoss="44.15" rerouteNo="0" devices="tripinfo_85" vType="DEFAULT_VEHTYPE" speedFactor="0.87" vaporized=""/>
    <tripinfo id="83" depart="78.00" departLane="318908683#0_0" departPos="5.10" departSpeed="9.26" departDelay="0.00" arrival="171.00" arrivalLane="918280984_0" arrivalPos="38.78" arrivalSpeed="14.69" duration="93.00" routeLength="693.58" waitingTime="38.00" waitingCount="2" stopTime="0.00" timeLoss="63.50" rerouteNo="0" devices="tripinfo_83" vType="DEFAULT_VEHTYPE" speedFactor="1.06" vaporized=""/>
    <tripinfo id="111" depart="119.00" departLane="918280985_0" departPos="5.10" departSpeed="1.79" departDelay="10.00" arrival="173.00" arrivalLane="15374898#0-AddedOffRampEdge_0" arrivalPos="100.00" arrivalSpeed="30.74" duration="54.00" routeLength="996.81" waitingTime="0.00" waitingCount="0" stopTime="0.00" timeLoss="18.60" rerouteNo="0" devices="tripinfo_111" vType="DEFAULT_VEHTYPE" speedFactor="1.13" vaporized=""/>
    <tripinfo id="55" depart="41.00" departLane="422685671#2_0" departPos="5.10" departSpeed="28.39" departDelay="0.00" arrival="175.00" arrivalLane="-597602753#1_0" arrivalPos="143.59" arrivalSpeed="22.34" duration="134.00" routeLength="1584.34" waitingTime="37.00" waitingCount="1" stopTime="0.00" timeLoss="64.96" rerouteNo="0" devices="tripinfo_55" vType="DEFAULT_VEHTYPE" speedFactor="1.02" vaporized=""/>
    <tripinfo id="48" depart="32.00" departLane="422685671#2_0" departPos="5.10" departSpeed="27.70" departDelay="0.00" arrival="178.00" arrivalLane="-597602756#0_0" arrivalPos="325.99" arrivalSpeed="21.40" duration="146.00" routeLength="1778.05" waitingTime="42.00" waitingCount="1" stopTime="0.00" timeLoss="66.21" rerouteNo="0" devices="tripinfo_48" vType="DEFAULT_VEHTYPE" speedFactor="1.00" vaporized=""/>
    <tripinfo id="54" depart="37.00" departLane="105681660#12_0" departPos="5.10" departSpeed="21.06" departDelay="0.00" arrival="180.00" arrivalLane="918280984_0" arrivalPos="38.78" arrivalSpeed="12.19" duration="143.00" routeLength="1405.13" waitingTime="40.00" waitingCount="2" stopTime="0.00" timeLoss="57.66" rerouteNo="0" devices="tripinfo_54" vType="DEFAULT_VEHTYPE" speedFactor="0.95" vaporized=""/>
    <tripinfo id="46" depart="31.00" departLane="422685671#2_0" departPos="5.10" departSpeed="24.97" departDelay="0.00" arrival="184.00" arrivalLane="-105681660#20_0" arrivalPos="806.12" arrivalSpeed="19.42" duration="153.00" routeLength="1813.05" waitingTime="42.00" waitingCount="1" stopTime="0.00" timeLoss="64.28" rerouteNo="0" devices="tripinfo_46" vType="DEFAULT_VEHTYPE" speedFactor="0.90" vaporized=""/>
    <tripinfo id="59" depart="50.00" departLane="422685671#2_0" departPos="5.10" departSpeed="28.68" departDelay="0.00" arrival="184.00" arrivalLane="-597602756#0_0" arrivalPos="325.99" arrivalSpeed="22.89" duration="134.00" routeLength="1778.05" waitingTime="29.00" waitingCount="1" stopTime="0.00" timeLoss="57.29" rerouteNo="0" devices="tripinfo_59" vType="DEFAULT_VEHTYPE" speedFactor="1.03" vaporized=""/>
    <tripinfo id="94" depart="93.00" departLane="105681660#12_0" departPos="5.10" departSpeed="22.94" departDelay="0.00" arrival="184.00" arrivalLane="-597602753#1_0" arrivalPos="143.59" arrivalSpeed="22.66" duration="91.00" routeLength="1380.56" waitingTime="20.00" waitingCount="1" stopTime="0.00" timeLoss="29.42" rerouteNo="0" devices="tripinfo_94" vType="DEFAULT_VEHTYPE" speedFactor="1.03" vaporized=""/>
    <tripinfo id="51" depart="34.00" departLane="422685671#2_0" departPos="5.10" departSpeed="27.42" departDelay="0.00" arrival="186.00" arrivalLane="-105681660#20_0" arrivalPos="806.12" arrivalSpeed="21.12" duration="152.00" routeLength="1813.05" waitingTime="39.00" waitingCount="1" stopTime="0.00" timeLoss="70.21" rerouteNo="0" devices="tripinfo_51" vType="DEFAULT_VEHTYPE" speedFactor="0.99" vaporized=""/>
    <tripinfo id="118" depart="118.00" departLane="422688973_1" departPos="5.10" departSpeed="13.62" departDelay="0.00" arrival="189.00" arrivalLane="15374898#0-AddedOffRampEdge_0" arrivalPos="100.00" arrivalSpeed="24.43" duration="71.00" routeLength="1006.54" waitingTime="12.00" waitingCount="1" stopTime="0.00" timeLoss="30.56" rerouteNo="0" devices="tripinfo_118" vType="DEFAULT_VEHTYPE" speedFactor="0.92" vaporized=""/>
    <tripinfo id="30" depart="20.00" departLane="918280985_0" departPos="5.10" departSpeed="10.50" departDelay="0.00" arrival="190.00" arrivalLane="260998164#0_0" arrivalPos="257.55" arrivalSpeed="25.31" duration="170.00" routeLength="1460.33" waitingTime="87.00" waitingCount="2" stopTime="0.00" timeLoss="109.17" rerouteNo="0" devices="tripinfo_30" vType="DEFAULT_VEHTYPE" speedFactor="0.94" vaporized=""/>
    <tripinfo id="101" depart="99.00" departLane="918280985_0" departPos="5.10" departSpeed="2.76" departDelay="1.00" arrival="190.00" arrivalLane="-597602753#1_0" arrivalPos="143.59" arrivalSpeed="22.54" duration="91.00" routeLength="1123.56" waitingTime="8.00" waitingCount="1" stopTime="0.00" timeLoss="26.28" rerouteNo="0" devices="tripinfo_101" vType="DEFAULT_VEHTYPE" speedFactor="1.03" vaporized=""/>
    <tripinfo id="31" depart="21.00" departLane="918280985_0" departPos="5.10" departSpeed="5.88" departDelay="0.00" arrival="191.00" arrivalLane="260998164#0_0" arrivalPos="257.55" arrivalSpeed="27.70" duration="170.00" routeLength="1460.33" waitingTime="85.00" waitingCount="2" stopTime="0.00" timeLoss="115.00" rerouteNo="0" devices="tripinfo_31" vType="DEFAULT_VEHTYPE" speedFactor="1.03" vaporized=""/>
    <tripinfo id="81" depart="76.00" departLane="105681660#12_0" departPos="5.10" departSpeed="17.28" departDelay="0.00" arrival="191.00" arrivalLane="-597602756#0_0" arrivalPos="325.99" arrivalSpeed="21.76" duration="115.00" routeLength="1877.95" waitingTime="5.00" waitingCount="1" stopTime="0.00" timeLoss="30.14" rerouteNo="0" devices="tripinfo_81" vType="DEFAULT_VEHTYPE" speedFactor="1.03" vaporized=""/>
    <tripinfo id="113" depart="111.00" departLane="597602753#0_0" departPos="5.10" departSpeed="21.45" departDelay="0.00" arrival="192.00" arrivalLane="918280984_0" arrivalPos="38.78" arrivalSpeed="12.62" duration="81.00" routeLength="1061.00" waitingTime="0.00" waitingCount="0" stopTime="0.00" timeLoss="6.34" rerouteNo="0" devices="tripinfo_113" vType="DEFAULT_VEHTYPE" speedFactor="0.97" vaporized=""/>
    <tripinfo id="72" depart="69.00" departLane="318908683#0_0" departPos="5.10" departSpeed="14.68" departDelay="0.00" arrival="197.00" arrivalLane="-597602756#0_0" arrivalPos="325.99" arrivalSpeed="22.83" duration="128.00" routeLength="1401.85" waitingTime="40.00" waitingCount="1" stopTime="0.00" timeLoss="66.20" rerouteNo="0" devices="tripinfo_72" vType="DEFAULT_VEHTYPE" speedFactor="1.06" vaporized=""/>
    <tripinfo id="80" depart="75.00" departLane="318908683#0_0" departPos="5.10" departSpeed="14.90" departDelay="0.00" arrival="200.00" arrivalLane="-597602753#1_0" arrivalPos="143.59" arrivalSpeed="23.44" duration="125.00" routeLength="1208.14" waitingTime="40.00" waitingCount="2" stopTime="0.00" timeLoss="71.54" rerouteNo="0" devices="tripinfo_80" vType="DEFAULT_VEHTYPE" speedFactor="1.07" vaporized=""/>