<?xml version="1.0" encoding="UTF-8"?>

<!-- generated on 2023-04-28 21:49:38 by Eclipse SUMO sumo Version 1.16.0
<configuration xmlns:xsi="http://www.w3.org/2001/XMLSchema-instance" xsi:noNamespaceSchemaLocation="http://sumo.dlr.de/xsd/sumoConfiguration.xsd">

    <input>
        <net-file value="C:\Users\Local_Man\Desktop\Stolen%20Music\school%20stuff%20for%20college\Semester%2015%20(UH%20Graduate%20School)\COSC%206364%20Nikolaos\SUMO_Project\COSC6364_Project\configurations\maps\Braess_Homebrew_fixed1.net.xml"/>
        <route-files value="./configurations/Rounds/Braess_Homebrew_fixed1.net.xml-test-1/Macroscopic_DUE/018/Trips_File_018.rou.xml"/>
    </input>

    <output>
        <summary-output value="./configurations/Rounds/Braess_Homebrew_fixed1.net.xml-test-1/Macroscopic_DUE/018/summary.xml"/>
        <tripinfo-output value="./configurations/Rounds/Braess_Homebrew_fixed1.net.xml-test-1/Macroscopic_DUE/018/trips.trips.xml"/>
        <statistic-output value="./configurations/Rounds/Braess_Homebrew_fixed1.net.xml-test-1/Macroscopic_DUE/018/stats_output.xml"/>
    </output>

    <time>
        <begin value="0"/>
    </time>

    <report>
        <log value="./configurations/Rounds/Braess_Homebrew_fixed1.net.xml-test-1/Macroscopic_DUE/018/log.sumo.log"/>
        <no-step-log value="true"/>
    </report>

    <gui_only>
        <quit-on-end value="true"/>
    </gui_only>

</configuration>
-->

<tripinfos xmlns:xsi="http://www.w3.org/2001/XMLSchema-instance" xsi:noNamespaceSchemaLocation="http://sumo.dlr.de/xsd/tripinfo_file.xsd">
    <tripinfo id="3" depart="4.00" departLane="E0_0" departPos="5.10" departSpeed="21.65" departDelay="0.00" arrival="89.00" arrivalLane="E3_0" arrivalPos="90.46" arrivalSpeed="31.61" duration="85.00" routeLength="1314.99" waitingTime="0.00" waitingCount="0" stopTime="0.00" timeLoss="9.11" rerouteNo="0" devices="tripinfo_3" vType="DEFAULT_VEHTYPE" speedFactor="1.08" vaporized=""/>
    <tripinfo id="5" depart="6.00" departLane="E0_0" departPos="5.10" departSpeed="17.18" departDelay="0.00" arrival="97.00" arrivalLane="E3_0" arrivalPos="90.46" arrivalSpeed="30.77" duration="91.00" routeLength="1314.99" waitingTime="0.00" waitingCount="0" stopTime="0.00" timeLoss="12.03" rerouteNo="0" devices="tripinfo_5" vType="DEFAULT_VEHTYPE" speedFactor="1.05" vaporized=""/>
    <tripinfo id="6" depart="7.00" departLane="E0_0" departPos="5.10" departSpeed="14.30" departDelay="1.00" arrival="99.00" arrivalLane="E3_0" arrivalPos="90.46" arrivalSpeed="32.07" duration="92.00" routeLength="1314.99" waitingTime="0.00" waitingCount="0" stopTime="0.00" timeLoss="15.19" rerouteNo="0" devices="tripinfo_6" vType="DEFAULT_VEHTYPE" speedFactor="1.08" vaporized=""/>
    <tripinfo id="8" depart="9.00" departLane="E0_0" departPos="5.10" departSpeed="7.74" departDelay="2.00" arrival="105.00" arrivalLane="E3_0" arrivalPos="90.46" arrivalSpeed="29.92" duration="96.00" routeLength="1314.99" waitingTime="0.00" waitingCount="0" stopTime="0.00" timeLoss="15.51" rerouteNo="0" devices="tripinfo_8" vType="DEFAULT_VEHTYPE" speedFactor="1.02" vaporized=""/>
    <tripinfo id="11" depart="15.00" departLane="E0_0" departPos="5.10" departSpeed="6.78" departDelay="6.00" arrival="107.00" arrivalLane="E3_0" arrivalPos="90.46" arrivalSpeed="32.55" duration="92.00" routeLength="1314.99" waitingTime="0.00" waitingCount="0" stopTime="0.00" timeLoss="18.49" rerouteNo="0" devices="tripinfo_11" vType="DEFAULT_VEHTYPE" speedFactor="1.12" vaporized=""/>
    <tripinfo id="12" depart="17.00" departLane="E0_0" departPos="5.10" departSpeed="6.24" departDelay="6.00" arrival="125.00" arrivalLane="E3_0" arrivalPos="90.46" arrivalSpeed="25.73" duration="108.00" routeLength="1314.99" waitingTime="0.00" waitingCount="0" stopTime="0.00" timeLoss="16.50" rerouteNo="0" devices="tripinfo_12" vType="DEFAULT_VEHTYPE" speedFactor="0.90" vaporized=""/>
    <tripinfo id="14" depart="21.00" departLane="E0_0" departPos="5.10" departSpeed="7.03" departDelay="9.00" arrival="126.00" arrivalLane="E3_0" arrivalPos="90.46" arrivalSpeed="27.47" duration="105.00" routeLength="1314.99" waitingTime="0.00" waitingCount="0" stopTime="0.00" timeLoss="26.35" rerouteNo="0" devices="tripinfo_14" vType="DEFAULT_VEHTYPE" speedFactor="1.04" vaporized=""/>
    <tripinfo id="18" depart="29.00" departLane="E0_0" departPos="5.10" departSpeed="5.31" departDelay="13.00" arrival="128.00" arrivalLane="E3_0" arrivalPos="90.46" arrivalSpeed="29.99" duration="99.00" routeLength="1314.99" waitingTime="0.00" waitingCount="0" stopTime="0.00" timeLoss="18.76" rerouteNo="0" devices="tripinfo_18" vType="DEFAULT_VEHTYPE" speedFactor="1.03" vaporized=""/>
    <tripinfo id="20" depart="33.00" departLane="E0_0" departPos="5.10" departSpeed="6.67" departDelay="16.00" arrival="134.00" arrivalLane="E3_0" arrivalPos="90.46" arrivalSpeed="29.14" duration="101.00" routeLength="1314.99" waitingTime="0.00" waitingCount="0" stopTime="0.00" timeLoss="19.16" rerouteNo="0" devices="tripinfo_20" vType="DEFAULT_VEHTYPE" speedFactor="1.01" vaporized=""/>
    <tripinfo id="2" depart="1.00" departLane="E0_0" departPos="5.10" departSpeed="19.50" departDelay="0.00" arrival="144.00" arrivalLane="E3_0" arrivalPos="90.46" arrivalSpeed="25.86" duration="143.00" routeLength="1317.38" waitingTime="40.00" waitingCount="1" stopTime="0.00" timeLoss="54.78" rerouteNo="0" devices="tripinfo_2" vType="DEFAULT_VEHTYPE" speedFactor="0.98" vaporized=""/>
    <tripinfo id="21" depart="35.00" departLane="E0_0" departPos="5.10" departSpeed="6.53" departDelay="18.00" arrival="148.00" arrivalLane="E3_0" arrivalPos="90.46" arrivalSpeed="26.03" duration="113.00" routeLength="1314.99" waitingTime="0.00" waitingCount="0" stopTime="0.00" timeLoss="18.78" rerouteNo="0" devices="tripinfo_21" vType="DEFAULT_VEHTYPE" speedFactor="0.87" vaporized=""/>
    <tripinfo id="22" depart="37.00" departLane="E0_0" departPos="5.10" departSpeed="7.39" departDelay="20.00" arrival="150.00" arrivalLane="E3_0" arrivalPos="90.46" arrivalSpeed="28.97" duration="113.00" routeLength="1314.99" waitingTime="0.00" waitingCount="0" stopTime="0.00" timeLoss="32.62" rerouteNo="0" devices="tripinfo_22" vType="DEFAULT_VEHTYPE" speedFactor="1.03" vaporized=""/>
    <tripinfo id="23" depart="39.00" departLane="E0_0" departPos="5.10" departSpeed="5.82" departDelay="21.00" arrival="151.00" arrivalLane="E3_0" arrivalPos="90.46" arrivalSpeed="29.65" duration="112.00" routeLength="1314.99" waitingTime="0.00" waitingCount="0" stopTime="0.00" timeLoss="38.92" rerouteNo="0" devices="tripinfo_23" vType="DEFAULT_VEHTYPE" speedFactor="1.13" vaporized=""/>
    <tripinfo id="24" depart="41.00" departLane="E0_0" departPos="5.10" departSpeed="4.82" departDelay="23.00" arrival="153.00" arrivalLane="E3_0" arrivalPos="90.46" arrivalSpeed="26.65" duration="112.00" routeLength="1314.99" waitingTime="0.00" waitingCount="0" stopTime="0.00" timeLoss="20.83" rerouteNo="0" devices="tripinfo_24" vType="DEFAULT_VEHTYPE" speedFactor="0.89" vaporized=""/>
    <tripinfo id="25" depart="44.00" departLane="E0_0" departPos="5.10" departSpeed="4.84" departDelay="24.00" arrival="155.00" arrivalLane="E3_0" arrivalPos="90.46" arrivalSpeed="30.02" duration="111.00" routeLength="1314.99" waitingTime="0.00" waitingCount="0" stopTime="0.00" timeLoss="39.57" rerouteNo="0" devices="tripinfo_25" vType="DEFAULT_VEHTYPE" speedFactor="1.15" vaporized=""/>
    <tripinfo id="26" depart="46.00" departLane="E0_0" departPos="5.10" departSpeed="2.54" departDelay="25.00" arrival="156.00" arrivalLane="E3_0" arrivalPos="90.46" arrivalSpeed="30.38" duration="110.00" routeLength="1314.99" waitingTime="0.00" waitingCount="0" stopTime="0.00" timeLoss="36.69" rerouteNo="0" devices="tripinfo_26" vType="DEFAULT_VEHTYPE" speedFactor="1.12" vaporized=""/>
    <tripinfo id="27" depart="49.00" departLane="E0_0" departPos="5.10" departSpeed="5.38" departDelay="27.00" arrival="158.00" arrivalLane="E3_0" arrivalPos="90.46" arrivalSpeed="29.42" duration="109.00" routeLength="1314.99" waitingTime="0.00" waitingCount="0" stopTime="0.00" timeLoss="26.18" rerouteNo="0" devices="tripinfo_27" vType="DEFAULT_VEHTYPE" speedFactor="0.99" vaporized=""/>
    <tripinfo id="28" depart="51.00" departLane="E0_0" departPos="5.10" departSpeed="5.34" departDelay="29.00" arrival="160.00" arrivalLane="E3_0" arrivalPos="90.46" arrivalSpeed="28.22" duration="109.00" routeLength="1314.99" waitingTime="0.00" waitingCount="0" stopTime="0.00" timeLoss="23.79" rerouteNo="0" devices="tripinfo_28" vType="DEFAULT_VEHTYPE" speedFactor="0.97" vaporized=""/>
    <tripinfo id="30" depart="55.00" departLane="E0_0" departPos="5.10" departSpeed="1.78" departDelay="30.00" arrival="165.00" arrivalLane="E3_0" arrivalPos="90.46" arrivalSpeed="27.89" duration="110.00" routeLength="1314.99" waitingTime="0.00" waitingCount="0" stopTime="0.00" timeLoss="22.35" rerouteNo="0" devices="tripinfo_30" vType="DEFAULT_VEHTYPE" speedFactor="0.94" vaporized=""/>
    <tripinfo id="31" depart="58.00" departLane="E0_0" departPos="5.10" departSpeed="3.41" departDelay="32.00" arrival="166.00" arrivalLane="E3_0" arrivalPos="90.46" arrivalSpeed="28.70" duration="108.00" routeLength="1314.99" waitingTime="0.00" waitingCount="0" stopTime="0.00" timeLoss="33.38" rerouteNo="0" devices="tripinfo_31" vType="DEFAULT_VEHTYPE" speedFactor="1.10" vaporized=""/>
    <tripinfo id="33" depart="63.00" departLane="E0_0" departPos="5.10" departSpeed="6.13" departDelay="33.00" arrival="168.00" arrivalLane="E3_0" arrivalPos="90.46" arrivalSpeed="30.70" duration="105.00" routeLength="1314.99" waitingTime="0.00" waitingCount="0" stopTime="0.00" timeLoss="24.88" rerouteNo="0" devices="tripinfo_33" vType="DEFAULT_VEHTYPE" speedFactor="1.03" vaporized=""/>
    <tripinfo id="34" depart="65.00" departLane="E0_0" departPos="5.10" departSpeed="7.50" departDelay="34.00" arrival="169.00" arrivalLane="E3_0" arrivalPos="90.46" arrivalSpeed="31.59" duration="104.00" routeLength="1314.99" waitingTime="0.00" waitingCount="0" stopTime="0.00" timeLoss="26.57" rerouteNo="0" devices="tripinfo_34" vType="DEFAULT_VEHTYPE" speedFactor="1.07" vaporized=""/>
    <tripinfo id="35" depart="67.00" departLane="E0_0" departPos="5.10" departSpeed="5.97" departDelay="30.00" arrival="170.00" arrivalLane="E3_0" arrivalPos="90.46" arrivalSpeed="30.80" duration="103.00" routeLength="1314.99" waitingTime="0.00" waitingCount="0" stopTime="0.00" timeLoss="24.37" rerouteNo="0" devices="tripinfo_35" vType="DEFAULT_VEHTYPE" speedFactor="1.04" vaporized=""/>
    <tripinfo id="4" depart="5.00" departLane="E0_0" departPos="5.10" departSpeed="18.97" departDelay="0.00" arrival="181.00" arrivalLane="E3_0" arrivalPos="90.46" arrivalSpeed="25.86" duration="176.00" routeLength="1317.38" waitingTime="71.00" waitingCount="2" stopTime="0.00" timeLoss="104.16" rerouteNo="0" devices="tripinfo_4" vType="DEFAULT_VEHTYPE" speedFactor="1.20" vaporized=""/>
    <tripinfo id="37" depart="71.00" departLane="E0_0" departPos="5.10" departSpeed="6.59" departDelay="33.00" arrival="186.00" arrivalLane="E3_0" arrivalPos="90.46" arrivalSpeed="26.22" duration="115.00" routeLength="1314.99" waitingTime="0.00" waitingCount="0" stopTime="0.00" timeLoss="23.10" rerouteNo="0" devices="tripinfo_37" vType="DEFAULT_VEHTYPE" speedFactor="0.90" vaporized=""/>
    <tripinfo id="40" depart="78.00" departLane="E0_0" departPos="5.10" departSpeed="4.05" departDelay="38.00" arrival="187.00" arrivalLane="E3_0" arrivalPos="90.46" arrivalSpeed="28.07" duration="109.00" routeLength="1314.99" waitingTime="0.00" waitingCount="0" stopTime="0.00" timeLoss="31.75" rerouteNo="0" devices="tripinfo_40" vType="DEFAULT_VEHTYPE" speedFactor="1.06" vaporized=""/>
    <tripinfo id="41" depart="80.00" departLane="E0_0" departPos="5.10" departSpeed="0.70" departDelay="39.00" arrival="189.00" arrivalLane="E3_0" arrivalPos="90.46" arrivalSpeed="29.28" duration="109.00" routeLength="1314.99" waitingTime="0.00" waitingCount="0" stopTime="0.00" timeLoss="38.43" rerouteNo="0" devices="tripinfo_41" vType="DEFAULT_VEHTYPE" speedFactor="1.17" vaporized=""/>
    <tripinfo id="47" depart="99.00" departLane="E0_0" departPos="5.10" departSpeed="3.38" departDelay="51.00" arrival="197.00" arrivalLane="E3_0" arrivalPos="90.46" arrivalSpeed="29.44" duration="98.00" routeLength="1314.99" waitingTime="0.00" waitingCount="0" stopTime="0.00" timeLoss="18.06" rerouteNo="0" devices="tripinfo_47" vType="DEFAULT_VEHTYPE" speedFactor="1.02" vaporized=""/>
    <tripinfo id="48" depart="102.00" departLane="E0_0" departPos="5.10" departSpeed="6.14" departDelay="53.00" arrival="203.00" arrivalLane="E3_0" arrivalPos="90.46" arrivalSpeed="29.37" duration="101.00" routeLength="1314.99" waitingTime="0.00" waitingCount="0" stopTime="0.00" timeLoss="18.21" rerouteNo="0" devices="tripinfo_48" vType="DEFAULT_VEHTYPE" speedFactor="1.00" vaporized=""/>
    <tripinfo id="49" depart="104.00" departLane="E0_0" departPos="5.10" departSpeed="5.96" departDelay="54.00" arrival="204.00" arrivalLane="E3_0" arrivalPos="90.46" arrivalSpeed="30.46" duration="100.00" routeLength="1314.99" waitingTime="0.00" waitingCount="0" stopTime="0.00" timeLoss="26.40" rerouteNo="0" devices="tripinfo_49" vType="DEFAULT_VEHTYPE" speedFactor="1.12" vaporized=""/>
    <tripinfo id="52" depart="110.00" departLane="E0_0" departPos="5.10" departSpeed="7.91" departDelay="55.00" arrival="214.00" arrivalLane="E3_0" arrivalPos="90.46" arrivalSpeed="27.72" duration="104.00" routeLength="1314.99" waitingTime="0.00" waitingCount="0" stopTime="0.00" timeLoss="18.32" rerouteNo="0" devices="tripinfo_52" vType="DEFAULT_VEHTYPE" speedFactor="0.96" vaporized=""/>
    <tripinfo id="53" depart="112.00" departLane="E0_0" departPos="5.10" departSpeed="7.71" departDelay="57.00" arrival="223.00" arrivalLane="E3_0" arrivalPos="90.46" arrivalSpeed="26.55" duration="111.00" routeLength="1314.99" waitingTime="0.00" waitingCount="0" stopTime="0.00" timeLoss="20.48" rerouteNo="0" devices="tripinfo_53" vType="DEFAULT_VEHTYPE" speedFactor="0.91" vaporized=""/>
    <tripinfo id="54" depart="114.00" departLane="E0_0" departPos="5.10" departSpeed="5.97" departDelay="59.00" arrival="225.00" arrivalLane="E3_0" arrivalPos="90.46" arrivalSpeed="28.01" duration="111.00" routeLength="1314.99" waitingTime="0.00" waitingCount="0" stopTime="0.00" timeLoss="23.72" rerouteNo="0" devices="tripinfo_54" vType="DEFAULT_VEHTYPE" speedFactor="0.95" vaporized=""/>
    <tripinfo id="55" depart="116.00" departLane="E0_0" departPos="5.10" departSpeed="4.58" departDelay="60.00" arrival="226.00" arrivalLane="E3_0" arrivalPos="90.46" arrivalSpeed="30.60" duration="110.00" routeLength="1314.99" waitingTime="0.00" waitingCount="0" stopTime="0.00" timeLoss="29.47" rerouteNo="0" devices="tripinfo_55" vType="DEFAULT_VEHTYPE" speedFactor="1.02" vaporized=""/>
    <tripinfo id="57" depart="121.00" departLane="E0_0" departPos="5.10" departSpeed="1.52" departDelay="63.00" arrival="227.00" arrivalLane="E3_0" arrivalPos="90.46" arrivalSpeed="30.30" duration="106.00" routeLength="1314.99" waitingTime="0.00" waitingCount="0" stopTime="0.00" timeLoss="28.43" rerouteNo="0" devices="tripinfo_57" vType="DEFAULT_VEHTYPE" speedFactor="1.06" vaporized=""/>
    <tripinfo id="58" depart="124.00" departLane="E0_0" departPos="5.10" departSpeed="4.68" departDelay="64.00" arrival="229.00" arrivalLane="E3_0" arrivalPos="90.46" arrivalSpeed="31.93" duration="105.00" routeLength="1314.99" waitingTime="0.00" waitingCount="0" stopTime="0.00" timeLoss="30.78" rerouteNo="0" devices="tripinfo_58" vType="DEFAULT_VEHTYPE" speedFactor="1.12" vaporized=""/>
    <tripinfo id="59" depart="126.00" departLane="E0_0" departPos="5.10" departSpeed="4.64" departDelay="66.00" arrival="230.00" arrivalLane="E3_0" arrivalPos="90.46" arrivalSpeed="29.88" duration="104.00" routeLength="1314.99" waitingTime="0.00" waitingCount="0" stopTime="0.00" timeLoss="24.42" rerouteNo="0" devices="tripinfo_59" vType="DEFAULT_VEHTYPE" speedFactor="1.03" vaporized=""/>
    <tripinfo id="60" depart="128.00" departLane="E0_0" departPos="5.10" departSpeed="3.87" departDelay="68.00" arrival="239.00" arrivalLane="E3_0" arrivalPos="90.46" arrivalSpeed="26.44" duration="111.00" routeLength="1314.99" waitingTime="0.00" waitingCount="0" stopTime="0.00" timeLoss="20.89" rerouteNo="0" devices="tripinfo_60" vType="DEFAULT_VEHTYPE" speedFactor="0.92" vaporized=""/>
    <tripinfo id="61" depart="130.00" departLane="E0_0" departPos="5.10" departSpeed="1.16" departDelay="68.00" arrival="240.00" arrivalLane="E3_0" arrivalPos="90.46" arrivalSpeed="29.27" duration="110.00" routeLength="1314.99" waitingTime="0.00" waitingCount="0" stopTime="0.00" timeLoss="34.14" rerouteNo="0" devices="tripinfo_61" vType="DEFAULT_VEHTYPE" speedFactor="1.09" vaporized=""/>
    <tripinfo id="63" depart="137.00" departLane="E0_0" departPos="5.10" departSpeed="5.83" departDelay="74.00" arrival="242.00" arrivalLane="E3_0" arrivalPos="90.46" arrivalSpeed="30.42" duration="105.00" routeLength="1314.99" waitingTime="0.00" waitingCount="0" stopTime="0.00" timeLoss="23.49" rerouteNo="0" devices="tripinfo_63" vType="DEFAULT_VEHTYPE" speedFactor="1.02" vaporized=""/>
    <tripinfo id="64" depart="139.00" departLane="E0_0" departPos="5.10" departSpeed="5.21" departDelay="75.00" arrival="243.00" arrivalLane="E3_0" arrivalPos="90.46" arrivalSpeed="28.53" duration="104.00" routeLength="1314.99" waitingTime="0.00" waitingCount="0" stopTime="0.00" timeLoss="27.75" rerouteNo="0" devices="tripinfo_64" vType="DEFAULT_VEHTYPE" speedFactor="1.08" vaporized=""/>
    <tripinfo id="67" depart="145.00" departLane="E0_0" departPos="5.10" departSpeed="5.88" departDelay="80.00" arrival="248.00" arrivalLane="E3_0" arrivalPos="90.46" arrivalSpeed="30.20" duration="103.00" routeLength="1314.99" waitingTime="0.00" waitingCount="0" stopTime="0.00" timeLoss="21.38" rerouteNo="0" devices="tripinfo_67" vType="DEFAULT_VEHTYPE" speedFactor="1.01" vaporized=""/>
    <tripinfo id="7" depart="8.00" departLane="E0_0" departPos="5.10" departSpeed="11.11" departDelay="1.00" arrival="255.00" arrivalLane="E3_0" arrivalPos="90.46" arrivalSpeed="26.09" duration="247.00" routeLength="1317.38" waitingTime="126.00" waitingCount="3" stopTime="0.00" timeLoss="155.35" rerouteNo="0" devices="tripinfo_7" vType="DEFAULT_VEHTYPE" speedFactor="0.94" vaporized=""/>
    <tripinfo id="9" depart="11.00" departLane="E0_0" departPos="5.10" departSpeed="8.00" departDelay="3.00" arrival="257.00" arrivalLane="E3_0" arrivalPos="90.46" arrivalSpeed="25.45" duration="246.00" routeLength="1317.38" waitingTime="125.00" waitingCount="3" stopTime="0.00" timeLoss="167.28" rerouteNo="0" devices="tripinfo_9" vType="DEFAULT_VEHTYPE" speedFactor="1.09" vaporized=""/>
    <tripinfo id="10" depart="12.00" departLane="E0_0" departPos="5.10" departSpeed="3.42" departDelay="4.00" arrival="259.00" arrivalLane="E3_0" arrivalPos="90.46" arrivalSpeed="24.99" duration="247.00" routeLength="1317.38" waitingTime="117.00" waitingCount="3" stopTime="0.00" timeLoss="154.00" rerouteNo="0" devices="tripinfo_10" vType="DEFAULT_VEHTYPE" speedFactor="0.92" vaporized=""/>
    <tripinfo id="13" depart="19.00" departLane="E0_0" departPos="5.10" departSpeed="6.31" departDelay="8.00" arrival="260.00" arrivalLane="E3_0" arrivalPos="90.46" arrivalSpeed="25.13" duration="241.00" routeLength="1317.38" waitingTime="115.00" waitingCount="3" stopTime="0.00" timeLoss="148.72" rerouteNo="0" devices="tripinfo_13" vType="DEFAULT_VEHTYPE" speedFactor="0.93" vaporized=""/>
    <tripinfo id="15" depart="23.00" departLane="E0_0" departPos="5.10" departSpeed="8.92" departDelay="11.00" arrival="264.00" arrivalLane="E3_0" arrivalPos="90.46" arrivalSpeed="25.30" duration="241.00" routeLength="1317.38" waitingTime="106.00" waitingCount="3" stopTime="0.00" timeLoss="148.88" rerouteNo="0" devices="tripinfo_15" vType="DEFAULT_VEHTYPE" speedFactor="0.94" vaporized=""/>
    <tripinfo id="69" depart="149.00" departLane="E0_0" departPos="5.10" departSpeed="4.48" departDelay="79.00" arrival="269.00" arrivalLane="E3_0" arrivalPos="90.46" arrivalSpeed="24.13" duration="120.00" routeLength="1314.99" waitingTime="0.00" waitingCount="0" stopTime="0.00" timeLoss="21.51" rerouteNo="0" devices="tripinfo_69" vType="DEFAULT_VEHTYPE" speedFactor="0.83" vaporized=""/>
    <tripinfo id="70" depart="151.00" departLane="E0_0" departPos="5.10" departSpeed="3.69" departDelay="76.00" arrival="270.00" arrivalLane="E3_0" arrivalPos="90.46" arrivalSpeed="26.32" duration="119.00" routeLength="1314.99" waitingTime="0.00" waitingCount="0" stopTime="0.00" timeLoss="41.13" rerouteNo="0" devices="tripinfo_70" vType="DEFAULT_VEHTYPE" speedFactor="1.05" vaporized=""/>
    <tripinfo id="71" depart="153.00" departLane="E0_0" departPos="5.10" departSpeed="1.18" departDelay="78.00" arrival="272.00" arrivalLane="E3_0" arrivalPos="90.46" arrivalSpeed="28.57" duration="119.00" routeLength="1314.99" waitingTime="0.00" waitingCount="0" stopTime="0.00" timeLoss="41.05" rerouteNo="0" devices="tripinfo_71" vType="DEFAULT_VEHTYPE" speedFactor="1.06" vaporized=""/>
    <tripinfo id="72" depart="156.00" departLane="E0_0" departPos="5.10" departSpeed="2.35" departDelay="81.00" arrival="275.00" arrivalLane="E3_0" arrivalPos="90.46" arrivalSpeed="25.23" duration="119.00" routeLength="1314.99" waitingTime="0.00" waitingCount="0" stopTime="0.00" timeLoss="23.16" rerouteNo="0" devices="tripinfo_72" vType="DEFAULT_VEHTYPE" speedFactor="0.86" vaporized=""/>
    <tripinfo id="73" depart="159.00" departLane="E0_0" departPos="5.10" departSpeed="4.63" departDelay="83.00" arrival="276.00" arrivalLane="E3_0" arrivalPos="90.46" arrivalSpeed="26.06" duration="117.00" routeLength="1314.99" waitingTime="0.00" waitingCount="0" stopTime="0.00" timeLoss="26.40" rerouteNo="0" devices="tripinfo_73" vType="DEFAULT_VEHTYPE" speedFactor="0.91" vaporized=""/>
    <tripinfo id="74" depart="161.00" departLane="E0_0" departPos="5.10" departSpeed="5.55" departDelay="85.00" arrival="278.00" arrivalLane="E3_0" arrivalPos="90.46" arrivalSpeed="27.62" duration="117.00" routeLength="1314.99" waitingTime="0.00" waitingCount="0" stopTime="0.00" timeLoss="44.65" rerouteNo="0" devices="tripinfo_74" vType="DEFAULT_VEHTYPE" speedFactor="1.14" vaporized=""/>
    <tripinfo id="77" depart="169.00" departLane="E0_0" departPos="5.10" departSpeed="4.87" departDelay="89.00" arrival="279.00" arrivalLane="E3_0" arrivalPos="90.46" arrivalSpeed="27.94" duration="110.00" routeLength="1314.99" waitingTime="0.00" waitingCount="0" stopTime="0.00" timeLoss="25.10" rerouteNo="0" devices="tripinfo_77" vType="DEFAULT_VEHTYPE" speedFactor="0.97" vaporized=""/>
    <tripinfo id="78" depart="171.00" departLane="E0_0" departPos="5.10" departSpeed="5.47" departDelay="89.00" arrival="280.00" arrivalLane="E3_0" arrivalPos="90.46" arrivalSpeed="27.71" duration="109.00" routeLength="1314.99" waitingTime="0.00" waitingCount="0" stopTime="0.00" timeLoss="23.01" rerouteNo="0" devices="tripinfo_78" vType="DEFAULT_VEHTYPE" speedFactor="0.95" vaporized=""/>
    <tripinfo id="79" depart="173.00" departLane="E0_0" departPos="5.10" departSpeed="5.07" departDelay="87.00" arrival="282.00" arrivalLane="E3_0" arrivalPos="90.46" arrivalSpeed="29.99" duration="109.00" routeLength="1314.99" waitingTime="0.00" waitingCount="0" stopTime="0.00" timeLoss="32.16" rerouteNo="0" devices="tripinfo_79" vType="DEFAULT_VEHTYPE" speedFactor="1.07" vaporized=""/>
    <tripinfo id="81" depart="178.00" departLane="E0_0" departPos="5.10" departSpeed="5.40" departDelay="92.00" arrival="283.00" arrivalLane="E3_0" arrivalPos="90.46" arrivalSpeed="28.98" duration="105.00" routeLength="1314.99" waitingTime="0.00" waitingCount="0" stopTime="0.00" timeLoss="25.64" rerouteNo="0" devices="tripinfo_81" vType="DEFAULT_VEHTYPE" speedFactor="1.03" vaporized=""/>
    <tripinfo id="82" depart="180.00" departLane="E0_0" departPos="5.10" departSpeed="1.69" departDelay="92.00" arrival="286.00" arrivalLane="E3_0" arrivalPos="90.46" arrivalSpeed="28.68" duration="106.00" routeLength="1314.99" waitingTime="0.00" waitingCount="0" stopTime="0.00" timeLoss="22.17" rerouteNo="0" devices="tripinfo_82" vType="DEFAULT_VEHTYPE" speedFactor="0.98" vaporized=""/>
    <tripinfo id="84" depart="186.00" departLane="E0_0" departPos="5.10" departSpeed="3.18" departDelay="95.00" arrival="288.00" arrivalLane="E3_0" arrivalPos="90.46" arrivalSpeed="33.99" duration="102.00" routeLength="1314.99" waitingTime="0.00" waitingCount="0" stopTime="0.00" timeLoss="35.54" rerouteNo="0" devices="tripinfo_84" vType="DEFAULT_VEHTYPE" speedFactor="1.25" vaporized=""/>
    <tripinfo id="16" depart="24.00" departLane="E0_0" departPos="5.10" departSpeed="5.10" departDelay="10.00" arrival="297.00" arrivalLane="E3_0" arrivalPos="90.46" arrivalSpeed="23.83" duration="273.00" routeLength="1317.38" waitingTime="132.00" waitingCount="4" stopTime="0.00" timeLoss="193.83" rerouteNo="0" devices="tripinfo_16" vType="DEFAULT_VEHTYPE" speedFactor="1.08" vaporized=""/>
    <tripinfo id="85" depart="189.00" departLane="E0_0" departPos="5.10" departSpeed="4.97" departDelay="97.00" arrival="303.00" arrivalLane="E3_0" arrivalPos="90.46" arrivalSpeed="25.42" duration="114.00" routeLength="1314.99" waitingTime="0.00" waitingCount="0" stopTime="0.00" timeLoss="19.51" rerouteNo="0" devices="tripinfo_85" vType="DEFAULT_VEHTYPE" speedFactor="0.87" vaporized=""/>
    <tripinfo id="87" depart="193.00" departLane="E0_0" departPos="5.10" departSpeed="3.19" departDelay="97.00" arrival="305.00" arrivalLane="E3_0" arrivalPos="90.46" arrivalSpeed="30.00" duration="112.00" routeLength="1314.99" waitingTime="0.00" waitingCount="0" stopTime="0.00" timeLoss="36.84" rerouteNo="0" devices="tripinfo_87" vType="DEFAULT_VEHTYPE" speedFactor="1.10" vaporized=""/>
    <tripinfo id="88" depart="196.00" departLane="E0_0" departPos="5.10" departSpeed="6.28" departDelay="99.00" arrival="306.00" arrivalLane="E3_0" arrivalPos="90.46" arrivalSpeed="27.96" duration="110.00" routeLength="1314.99" waitingTime="0.00" waitingCount="0" stopTime="0.00" timeLoss="25.57" rerouteNo="0" devices="tripinfo_88" vType="DEFAULT_VEHTYPE" speedFactor="0.97" vaporized=""/>
    <tripinfo id="90" depart="200.00" departLane="E0_0" departPos="5.10" departSpeed="7.09" departDelay="103.00" arrival="308.00" arrivalLane="E3_0" arrivalPos="90.46" arrivalSpeed="29.50" duration="108.00" routeLength="1314.99" waitingTime="0.00" waitingCount="0" stopTime="0.00" timeLoss="35.07" rerouteNo="0" devices="tripinfo_90" vType="DEFAULT_VEHTYPE" speedFactor="1.13" vaporized=""/>
    <tripinfo id="91" depart="202.00" departLane="E0_0" departPos="5.10" departSpeed="5.51" departDelay="105.00" arrival="309.00" arrivalLane="E3_0" arrivalPos="90.46" arrivalSpeed="29.53" duration="107.00" routeLength="1314.99" waitingTime="0.00" waitingCount="0" stopTime="0.00" timeLoss="23.97" rerouteNo="0" devices="tripinfo_91" vType="DEFAULT_VEHTYPE" speedFactor="0.99" vaporized=""/>
    <tripinfo id="95" depart="211.00" departLane="E0_0" departPos="5.10" departSpeed="0.04" departDelay="112.00" arrival="314.00" arrivalLane="E3_0" arrivalPos="90.46" arrivalSpeed="30.27" duration="103.00" routeLength="1314.99" waitingTime="1.00" waitingCount="1" stopTime="0.00" timeLoss="22.54" rerouteNo="0" devices="tripinfo_95" vType="DEFAULT_VEHTYPE" speedFactor="1.02" vaporized=""/>
    <tripinfo id="97" depart="217.00" departLane="E0_0" departPos="5.10" departSpeed="1.59" departDelay="116.00" arrival="317.00" arrivalLane="E3_0" arrivalPos="90.46" arrivalSpeed="30.54" duration="100.00" routeLength="1314.99" waitingTime="0.00" waitingCount="0" stopTime="0.00" timeLoss="19.65" rerouteNo="0" devices="tripinfo_97" vType="DEFAULT_VEHTYPE" speedFactor="1.03" vaporized=""/>
    <tripinfo id="98" depart="220.00" departLane="E0_0" departPos="5.10" departSpeed="3.09" departDelay="119.00" arrival="322.00" arrivalLane="E3_0" arrivalPos="90.46" arrivalSpeed="29.10" duration="102.00" routeLength="1314.99" waitingTime="0.00" waitingCount="0" stopTime="0.00" timeLoss="20.73" rerouteNo="0" devices="tripinfo_98" vType="DEFAULT_VEHTYPE" speedFactor="1.00" vaporized=""/>
    <tripinfo id="99" depart="223.00" departLane="E0_0" departPos="5.10" departSpeed="4.46" departDelay="121.00" arrival="324.00" arrivalLane="E3_0" arrivalPos="90.46" arrivalSpeed="32.29" duration="101.00" routeLength="1314.99" waitingTime="0.00" waitingCount="0" stopTime="0.00" timeLoss="27.12" rerouteNo="0" devices="tripinfo_99" vType="DEFAULT_VEHTYPE" speedFactor="1.12" vaporized=""/>
    <tripinfo id="101" depart="228.00" departLane="E0_0" departPos="5.10" departSpeed="5.13" departDelay="124.00" arrival="327.00" arrivalLane="E3_0" arrivalPos="90.46" arrivalSpeed="30.63" duration="99.00" routeLength="1314.99" waitingTime="0.00" waitingCount="0" stopTime="0.00" timeLoss="18.83" rerouteNo="0" devices="tripinfo_101" vType="DEFAULT_VEHTYPE" speedFactor="1.03" vaporized=""/>
    <tripinfo id="103" depart="232.00" departLane="E0_0" departPos="5.10" departSpeed="0.32" departDelay="126.00" arrival="331.00" arrivalLane="E3_0" arrivalPos="90.46" arrivalSpeed="30.71" duration="99.00" routeLength="1314.99" waitingTime="0.00" waitingCount="0" stopTime="0.00" timeLoss="19.89" rerouteNo="0" devices="tripinfo_103" vType="DEFAULT_VEHTYPE" speedFactor="1.04" vaporized=""/>
    <tripinfo id="105" depart="238.00" departLane="E0_0" departPos="5.10" departSpeed="6.02" departDelay="132.00" arrival="339.00" arrivalLane="E3_0" arrivalPos="90.46" arrivalSpeed="29.18" duration="101.00" routeLength="1314.99" waitingTime="0.00" waitingCount="0" stopTime="0.00" timeLoss="19.60" rerouteNo="0" devices="tripinfo_105" vType="DEFAULT_VEHTYPE" speedFactor="1.01" vaporized=""/>