<?xml version="1.0" encoding="UTF-8"?>

<!-- generated on 2023-04-28 22:27:37 by Eclipse SUMO sumo Version 1.16.0
<configuration xmlns:xsi="http://www.w3.org/2001/XMLSchema-instance" xsi:noNamespaceSchemaLocation="http://sumo.dlr.de/xsd/sumoConfiguration.xsd">

    <input>
        <net-file value="C:\Users\Local_Man\Desktop\Stolen%20Music\school%20stuff%20for%20college\Semester%2015%20(UH%20Graduate%20School)\COSC%206364%20Nikolaos\SUMO_Project\COSC6364_Project\configurations\maps\Braess_Homebrew_fixed1.net.xml"/>
        <route-files value="./configurations/Rounds/Braess_Homebrew_fixed1.net.xml-test-2/Mesoscopic_DUE/002/Trips_File_002.rou.xml"/>
    </input>

    <output>
        <summary-output value="./configurations/Rounds/Braess_Homebrew_fixed1.net.xml-test-2/Mesoscopic_DUE/002/summary.xml"/>
        <tripinfo-output value="./configurations/Rounds/Braess_Homebrew_fixed1.net.xml-test-2/Mesoscopic_DUE/002/trips.trips.xml"/>
        <statistic-output value="./configurations/Rounds/Braess_Homebrew_fixed1.net.xml-test-2/Mesoscopic_DUE/002/stats_output.xml"/>
    </output>

    <time>
        <begin value="0"/>
    </time>

    <report>
        <log value="./configurations/Rounds/Braess_Homebrew_fixed1.net.xml-test-2/Mesoscopic_DUE/002/log.sumo.log"/>
        <no-step-log value="true"/>
    </report>

    <gui_only>
        <quit-on-end value="true"/>
    </gui_only>

</configuration>
-->

<tripinfos xmlns:xsi="http://www.w3.org/2001/XMLSchema-instance" xsi:noNamespaceSchemaLocation="http://sumo.dlr.de/xsd/tripinfo_file.xsd">
    <tripinfo id="2" depart="3.00" departLane="E0_0" departPos="5.10" departSpeed="0.00" departDelay="0.00" arrival="101.00" arrivalLane="E3_0" arrivalPos="90.46" arrivalSpeed="25.02" duration="98.00" routeLength="1317.38" waitingTime="0.00" waitingCount="0" stopTime="0.00" timeLoss="17.06" rerouteNo="0" devices="tripinfo_2" vType="DEFAULT_VEHTYPE" speedFactor="1.06" vaporized=""/>
    <tripinfo id="4" depart="9.00" departLane="E0_0" departPos="5.10" departSpeed="0.00" departDelay="1.00" arrival="105.00" arrivalLane="E3_0" arrivalPos="90.46" arrivalSpeed="29.04" duration="96.00" routeLength="1314.99" waitingTime="0.00" waitingCount="0" stopTime="0.00" timeLoss="15.30" rerouteNo="0" devices="tripinfo_4" vType="DEFAULT_VEHTYPE" speedFactor="1.01" vaporized=""/>
    <tripinfo id="5" depart="12.00" departLane="E0_0" departPos="5.10" departSpeed="0.00" departDelay="3.00" arrival="107.00" arrivalLane="E3_0" arrivalPos="90.46" arrivalSpeed="31.23" duration="95.00" routeLength="1314.99" waitingTime="0.00" waitingCount="0" stopTime="0.00" timeLoss="18.93" rerouteNo="0" devices="tripinfo_5" vType="DEFAULT_VEHTYPE" speedFactor="1.08" vaporized=""/>
    <tripinfo id="3" depart="6.00" departLane="E0_0" departPos="5.10" departSpeed="0.00" departDelay="3.00" arrival="113.00" arrivalLane="E3_0" arrivalPos="90.46" arrivalSpeed="24.33" duration="107.00" routeLength="1317.38" waitingTime="0.00" waitingCount="0" stopTime="0.00" timeLoss="15.73" rerouteNo="0" devices="tripinfo_3" vType="DEFAULT_VEHTYPE" speedFactor="0.94" vaporized=""/>
    <tripinfo id="6" depart="15.00" departLane="E0_0" departPos="5.10" departSpeed="0.00" departDelay="5.00" arrival="119.00" arrivalLane="E3_0" arrivalPos="90.46" arrivalSpeed="25.09" duration="104.00" routeLength="1317.38" waitingTime="0.00" waitingCount="0" stopTime="0.00" timeLoss="20.79" rerouteNo="0" devices="tripinfo_6" vType="DEFAULT_VEHTYPE" speedFactor="1.03" vaporized=""/>
    <tripinfo id="8" depart="21.00" departLane="E0_0" departPos="5.10" departSpeed="0.00" departDelay="7.00" arrival="125.00" arrivalLane="E3_0" arrivalPos="90.46" arrivalSpeed="24.53" duration="104.00" routeLength="1317.38" waitingTime="0.00" waitingCount="0" stopTime="0.00" timeLoss="22.00" rerouteNo="0" devices="tripinfo_8" vType="DEFAULT_VEHTYPE" speedFactor="1.05" vaporized=""/>
    <tripinfo id="7" depart="18.00" departLane="E0_0" departPos="5.10" departSpeed="0.00" departDelay="6.00" arrival="132.00" arrivalLane="E3_0" arrivalPos="90.46" arrivalSpeed="23.97" duration="114.00" routeLength="1314.99" waitingTime="0.00" waitingCount="0" stopTime="0.00" timeLoss="15.38" rerouteNo="0" devices="tripinfo_7" vType="DEFAULT_VEHTYPE" speedFactor="0.83" vaporized=""/>
    <tripinfo id="9" depart="24.00" departLane="E0_0" departPos="5.10" departSpeed="0.00" departDelay="9.00" arrival="134.00" arrivalLane="E3_0" arrivalPos="90.46" arrivalSpeed="26.06" duration="110.00" routeLength="1314.99" waitingTime="0.00" waitingCount="0" stopTime="0.00" timeLoss="17.03" rerouteNo="0" devices="tripinfo_9" vType="DEFAULT_VEHTYPE" speedFactor="0.89" vaporized=""/>
    <tripinfo id="12" depart="33.00" departLane="E0_0" departPos="5.10" departSpeed="0.00" departDelay="13.00" arrival="135.00" arrivalLane="E3_0" arrivalPos="90.46" arrivalSpeed="27.89" duration="102.00" routeLength="1314.99" waitingTime="0.00" waitingCount="0" stopTime="0.00" timeLoss="26.67" rerouteNo="0" devices="tripinfo_12" vType="DEFAULT_VEHTYPE" speedFactor="1.09" vaporized=""/>
    <tripinfo id="14" depart="39.00" departLane="E0_0" departPos="5.10" departSpeed="0.00" departDelay="17.00" arrival="137.00" arrivalLane="E3_0" arrivalPos="90.46" arrivalSpeed="30.30" duration="98.00" routeLength="1314.99" waitingTime="0.00" waitingCount="0" stopTime="0.00" timeLoss="19.08" rerouteNo="0" devices="tripinfo_14" vType="DEFAULT_VEHTYPE" speedFactor="1.05" vaporized=""/>
    <tripinfo id="15" depart="42.00" departLane="E0_0" departPos="5.10" departSpeed="0.00" departDelay="19.00" arrival="138.00" arrivalLane="E3_0" arrivalPos="90.46" arrivalSpeed="29.63" duration="96.00" routeLength="1314.99" waitingTime="0.00" waitingCount="0" stopTime="0.00" timeLoss="22.59" rerouteNo="0" devices="tripinfo_15" vType="DEFAULT_VEHTYPE" speedFactor="1.12" vaporized=""/>
    <tripinfo id="17" depart="48.00" departLane="E0_0" departPos="5.10" departSpeed="0.00" departDelay="24.00" arrival="151.00" arrivalLane="E3_0" arrivalPos="90.46" arrivalSpeed="26.85" duration="103.00" routeLength="1314.99" waitingTime="0.00" waitingCount="0" stopTime="0.00" timeLoss="13.77" rerouteNo="0" devices="tripinfo_17" vType="DEFAULT_VEHTYPE" speedFactor="0.93" vaporized=""/>
    <tripinfo id="18" depart="51.00" departLane="E0_0" departPos="5.10" departSpeed="0.00" departDelay="27.00" arrival="158.00" arrivalLane="E3_0" arrivalPos="90.46" arrivalSpeed="26.30" duration="107.00" routeLength="1314.99" waitingTime="0.00" waitingCount="0" stopTime="0.00" timeLoss="13.81" rerouteNo="0" devices="tripinfo_18" vType="DEFAULT_VEHTYPE" speedFactor="0.88" vaporized=""/>
    <tripinfo id="20" depart="57.00" departLane="E0_0" departPos="5.10" departSpeed="0.00" departDelay="28.00" arrival="160.00" arrivalLane="E3_0" arrivalPos="90.46" arrivalSpeed="27.30" duration="103.00" routeLength="1314.99" waitingTime="0.00" waitingCount="0" stopTime="0.00" timeLoss="15.09" rerouteNo="0" devices="tripinfo_20" vType="DEFAULT_VEHTYPE" speedFactor="0.94" vaporized=""/>
    <tripinfo id="22" depart="63.00" departLane="E0_0" departPos="5.10" departSpeed="0.00" departDelay="31.00" arrival="161.00" arrivalLane="E3_0" arrivalPos="90.46" arrivalSpeed="29.18" duration="98.00" routeLength="1314.99" waitingTime="0.00" waitingCount="0" stopTime="0.00" timeLoss="17.27" rerouteNo="0" devices="tripinfo_22" vType="DEFAULT_VEHTYPE" speedFactor="1.02" vaporized=""/>
    <tripinfo id="24" depart="69.00" departLane="E0_0" departPos="5.10" departSpeed="0.00" departDelay="36.00" arrival="168.00" arrivalLane="E3_0" arrivalPos="90.46" arrivalSpeed="29.03" duration="99.00" routeLength="1314.99" waitingTime="0.00" waitingCount="0" stopTime="0.00" timeLoss="14.59" rerouteNo="0" devices="tripinfo_24" vType="DEFAULT_VEHTYPE" speedFactor="0.97" vaporized=""/>
    <tripinfo id="10" depart="27.00" departLane="E0_0" departPos="5.10" departSpeed="0.00" departDelay="12.00" arrival="178.00" arrivalLane="E3_0" arrivalPos="90.46" arrivalSpeed="23.41" duration="151.00" routeLength="1317.38" waitingTime="36.00" waitingCount="1" stopTime="0.00" timeLoss="59.52" rerouteNo="0" devices="tripinfo_10" vType="DEFAULT_VEHTYPE" speedFactor="0.94" vaporized=""/>
    <tripinfo id="29" depart="85.00" departLane="E0_0" departPos="5.10" departSpeed="0.00" departDelay="48.00" arrival="185.00" arrivalLane="E3_0" arrivalPos="90.46" arrivalSpeed="28.16" duration="100.00" routeLength="1314.99" waitingTime="0.00" waitingCount="0" stopTime="0.00" timeLoss="13.63" rerouteNo="0" devices="tripinfo_29" vType="DEFAULT_VEHTYPE" speedFactor="0.95" vaporized=""/>
    <tripinfo id="31" depart="91.00" departLane="E0_0" departPos="5.10" departSpeed="0.00" departDelay="54.00" arrival="193.00" arrivalLane="E3_0" arrivalPos="90.46" arrivalSpeed="26.94" duration="102.00" routeLength="1314.99" waitingTime="0.00" waitingCount="0" stopTime="0.00" timeLoss="14.01" rerouteNo="0" devices="tripinfo_31" vType="DEFAULT_VEHTYPE" speedFactor="0.93" vaporized=""/>
    <tripinfo id="32" depart="94.00" departLane="E0_0" departPos="5.10" departSpeed="0.00" departDelay="56.00" arrival="195.00" arrivalLane="E3_0" arrivalPos="90.46" arrivalSpeed="32.44" duration="101.00" routeLength="1314.99" waitingTime="0.00" waitingCount="0" stopTime="0.00" timeLoss="30.78" rerouteNo="0" devices="tripinfo_32" vType="DEFAULT_VEHTYPE" speedFactor="1.18" vaporized=""/>
    <tripinfo id="33" depart="97.00" departLane="E0_0" departPos="5.10" departSpeed="0.00" departDelay="59.00" arrival="196.00" arrivalLane="E3_0" arrivalPos="90.46" arrivalSpeed="32.51" duration="99.00" routeLength="1314.99" waitingTime="0.00" waitingCount="0" stopTime="0.00" timeLoss="27.52" rerouteNo="0" devices="tripinfo_33" vType="DEFAULT_VEHTYPE" speedFactor="1.15" vaporized=""/>
    <tripinfo id="35" depart="103.00" departLane="E0_0" departPos="5.10" departSpeed="0.00" departDelay="64.00" arrival="197.00" arrivalLane="E3_0" arrivalPos="90.46" arrivalSpeed="31.59" duration="94.00" routeLength="1314.99" waitingTime="0.00" waitingCount="0" stopTime="0.00" timeLoss="23.83" rerouteNo="0" devices="tripinfo_35" vType="DEFAULT_VEHTYPE" speedFactor="1.17" vaporized=""/>
    <tripinfo id="37" depart="109.00" departLane="E0_0" departPos="5.10" departSpeed="0.00" departDelay="69.00" arrival="205.00" arrivalLane="E3_0" arrivalPos="90.46" arrivalSpeed="29.70" duration="96.00" routeLength="1314.99" waitingTime="0.00" waitingCount="0" stopTime="0.00" timeLoss="15.06" rerouteNo="0" devices="tripinfo_37" vType="DEFAULT_VEHTYPE" speedFactor="1.02" vaporized=""/>
    <tripinfo id="39" depart="115.00" departLane="E0_0" departPos="5.10" departSpeed="0.00" departDelay="70.00" arrival="206.00" arrivalLane="E3_0" arrivalPos="90.46" arrivalSpeed="32.32" duration="91.00" routeLength="1314.99" waitingTime="0.00" waitingCount="0" stopTime="0.00" timeLoss="21.43" rerouteNo="0" devices="tripinfo_39" vType="DEFAULT_VEHTYPE" speedFactor="1.18" vaporized=""/>
    <tripinfo id="40" depart="119.00" departLane="E0_0" departPos="5.10" departSpeed="0.00" departDelay="73.00" arrival="208.00" arrivalLane="E3_0" arrivalPos="90.46" arrivalSpeed="32.28" duration="89.00" routeLength="1314.99" waitingTime="0.00" waitingCount="0" stopTime="0.00" timeLoss="14.22" rerouteNo="0" devices="tripinfo_40" vType="DEFAULT_VEHTYPE" speedFactor="1.10" vaporized=""/>
    <tripinfo id="11" depart="30.00" departLane="E0_0" departPos="5.10" departSpeed="0.00" departDelay="13.00" arrival="217.00" arrivalLane="E3_0" arrivalPos="90.46" arrivalSpeed="22.70" duration="187.00" routeLength="1317.38" waitingTime="63.00" waitingCount="2" stopTime="0.00" timeLoss="87.10" rerouteNo="0" devices="tripinfo_11" vType="DEFAULT_VEHTYPE" speedFactor="0.86" vaporized=""/>
    <tripinfo id="13" depart="36.00" departLane="E0_0" departPos="5.10" departSpeed="0.00" departDelay="16.00" arrival="219.00" arrivalLane="E3_0" arrivalPos="90.46" arrivalSpeed="23.97" duration="183.00" routeLength="1317.38" waitingTime="61.00" waitingCount="2" stopTime="0.00" timeLoss="99.36" rerouteNo="0" devices="tripinfo_13" vType="DEFAULT_VEHTYPE" speedFactor="1.03" vaporized=""/>
    <tripinfo id="41" depart="122.00" departLane="E0_0" departPos="5.10" departSpeed="0.00" departDelay="76.00" arrival="226.00" arrivalLane="E3_0" arrivalPos="90.46" arrivalSpeed="26.97" duration="104.00" routeLength="1314.99" waitingTime="0.00" waitingCount="0" stopTime="0.00" timeLoss="13.02" rerouteNo="0" devices="tripinfo_41" vType="DEFAULT_VEHTYPE" speedFactor="0.90" vaporized=""/>
    <tripinfo id="42" depart="125.00" departLane="E0_0" departPos="5.10" departSpeed="0.00" departDelay="79.00" arrival="228.00" arrivalLane="E3_0" arrivalPos="90.46" arrivalSpeed="30.60" duration="103.00" routeLength="1314.99" waitingTime="0.00" waitingCount="0" stopTime="0.00" timeLoss="22.83" rerouteNo="0" devices="tripinfo_42" vType="DEFAULT_VEHTYPE" speedFactor="1.03" vaporized=""/>
    <tripinfo id="44" depart="131.00" departLane="E0_0" departPos="5.10" departSpeed="0.00" departDelay="80.00" arrival="229.00" arrivalLane="E3_0" arrivalPos="90.46" arrivalSpeed="30.54" duration="98.00" routeLength="1314.99" waitingTime="0.00" waitingCount="0" stopTime="0.00" timeLoss="22.68" rerouteNo="0" devices="tripinfo_44" vType="DEFAULT_VEHTYPE" speedFactor="1.09" vaporized=""/>
    <tripinfo id="45" depart="134.00" departLane="E0_0" departPos="5.10" departSpeed="0.00" departDelay="83.00" arrival="230.00" arrivalLane="E3_0" arrivalPos="90.46" arrivalSpeed="30.25" duration="96.00" routeLength="1314.99" waitingTime="0.00" waitingCount="0" stopTime="0.00" timeLoss="17.25" rerouteNo="0" devices="tripinfo_45" vType="DEFAULT_VEHTYPE" speedFactor="1.04" vaporized=""/>
    <tripinfo id="46" depart="137.00" departLane="E0_0" departPos="5.10" departSpeed="0.00" departDelay="85.00" arrival="232.00" arrivalLane="E3_0" arrivalPos="90.46" arrivalSpeed="31.08" duration="95.00" routeLength="1314.99" waitingTime="0.00" waitingCount="0" stopTime="0.00" timeLoss="16.18" rerouteNo="0" devices="tripinfo_46" vType="DEFAULT_VEHTYPE" speedFactor="1.04" vaporized=""/>
    <tripinfo id="48" depart="142.00" departLane="E0_0" departPos="5.10" departSpeed="0.00" departDelay="89.00" arrival="239.00" arrivalLane="E3_0" arrivalPos="90.46" arrivalSpeed="29.86" duration="97.00" routeLength="1314.99" waitingTime="0.00" waitingCount="0" stopTime="0.00" timeLoss="14.68" rerouteNo="0" devices="tripinfo_48" vType="DEFAULT_VEHTYPE" speedFactor="1.00" vaporized=""/>
    <tripinfo id="16" depart="45.00" departLane="E0_0" departPos="5.10" departSpeed="0.00" departDelay="22.00" arrival="249.00" arrivalLane="E3_0" arrivalPos="90.46" arrivalSpeed="25.49" duration="204.00" routeLength="1317.38" waitingTime="84.00" waitingCount="3" stopTime="0.00" timeLoss="117.23" rerouteNo="0" devices="tripinfo_16" vType="DEFAULT_VEHTYPE" speedFactor="0.99" vaporized=""/>
    <tripinfo id="50" depart="149.00" departLane="E0_0" departPos="5.10" departSpeed="0.00" departDelay="91.00" arrival="257.00" arrivalLane="E3_0" arrivalPos="90.46" arrivalSpeed="25.33" duration="108.00" routeLength="1314.99" waitingTime="0.00" waitingCount="0" stopTime="0.00" timeLoss="13.90" rerouteNo="0" devices="tripinfo_50" vType="DEFAULT_VEHTYPE" speedFactor="0.88" vaporized=""/>
    <tripinfo id="57" depart="170.00" departLane="E0_0" departPos="5.10" departSpeed="0.00" departDelay="109.00" arrival="266.00" arrivalLane="E3_0" arrivalPos="90.46" arrivalSpeed="29.26" duration="96.00" routeLength="1314.99" waitingTime="0.00" waitingCount="0" stopTime="0.00" timeLoss="13.11" rerouteNo="0" devices="tripinfo_57" vType="DEFAULT_VEHTYPE" speedFactor="1.00" vaporized=""/>
    <tripinfo id="19" depart="54.00" departLane="E0_0" departPos="5.10" departSpeed="0.00" departDelay="26.00" arrival="275.00" arrivalLane="E3_0" arrivalPos="90.46" arrivalSpeed="23.88" duration="221.00" routeLength="1317.38" waitingTime="97.00" waitingCount="4" stopTime="0.00" timeLoss="130.35" rerouteNo="0" devices="tripinfo_19" vType="DEFAULT_VEHTYPE" speedFactor="0.94" vaporized=""/>
    <tripinfo id="58" depart="173.00" departLane="E0_0" departPos="5.10" departSpeed="0.00" departDelay="112.00" arrival="279.00" arrivalLane="E3_0" arrivalPos="90.46" arrivalSpeed="26.59" duration="106.00" routeLength="1314.99" waitingTime="0.00" waitingCount="0" stopTime="0.00" timeLoss="14.67" rerouteNo="0" devices="tripinfo_58" vType="DEFAULT_VEHTYPE" speedFactor="0.90" vaporized=""/>
    <tripinfo id="60" depart="179.00" departLane="E0_0" departPos="5.10" departSpeed="0.00" departDelay="116.00" arrival="281.00" arrivalLane="E3_0" arrivalPos="90.46" arrivalSpeed="29.91" duration="102.00" routeLength="1314.99" waitingTime="0.00" waitingCount="0" stopTime="0.00" timeLoss="21.01" rerouteNo="0" devices="tripinfo_60" vType="DEFAULT_VEHTYPE" speedFactor="1.02" vaporized=""/>
    <tripinfo id="62" depart="185.00" departLane="E0_0" departPos="5.10" departSpeed="0.00" departDelay="121.00" arrival="282.00" arrivalLane="E3_0" arrivalPos="90.46" arrivalSpeed="30.73" duration="97.00" routeLength="1314.99" waitingTime="0.00" waitingCount="0" stopTime="0.00" timeLoss="20.97" rerouteNo="0" devices="tripinfo_62" vType="DEFAULT_VEHTYPE" speedFactor="1.08" vaporized=""/>
    <tripinfo id="64" depart="191.00" departLane="E0_0" departPos="5.10" departSpeed="0.00" departDelay="126.00" arrival="286.00" arrivalLane="E3_0" arrivalPos="90.46" arrivalSpeed="30.34" duration="95.00" routeLength="1314.99" waitingTime="0.00" waitingCount="0" stopTime="0.00" timeLoss="13.82" rerouteNo="0" devices="tripinfo_64" vType="DEFAULT_VEHTYPE" speedFactor="1.02" vaporized=""/>
    <tripinfo id="65" depart="194.00" departLane="E0_0" departPos="5.10" departSpeed="0.00" departDelay="126.00" arrival="291.00" arrivalLane="E3_0" arrivalPos="90.46" arrivalSpeed="29.23" duration="97.00" routeLength="1314.99" waitingTime="0.00" waitingCount="0" stopTime="0.00" timeLoss="13.63" rerouteNo="0" devices="tripinfo_65" vType="DEFAULT_VEHTYPE" speedFactor="0.99" vaporized=""/>
    <tripinfo id="66" depart="197.00" departLane="E0_0" departPos="5.10" departSpeed="0.00" departDelay="124.00" arrival="300.00" arrivalLane="E3_0" arrivalPos="90.46" arrivalSpeed="27.25" duration="103.00" routeLength="1314.99" waitingTime="0.00" waitingCount="0" stopTime="0.00" timeLoss="15.54" rerouteNo="0" devices="tripinfo_66" vType="DEFAULT_VEHTYPE" speedFactor="0.94" vaporized=""/>
    <tripinfo id="69" depart="206.00" departLane="E0_0" departPos="5.10" departSpeed="0.00" departDelay="130.00" arrival="310.00" arrivalLane="E3_0" arrivalPos="90.46" arrivalSpeed="26.78" duration="104.00" routeLength="1314.99" waitingTime="0.00" waitingCount="0" stopTime="0.00" timeLoss="13.83" rerouteNo="0" devices="tripinfo_69" vType="DEFAULT_VEHTYPE" speedFactor="0.91" vaporized=""/>
    <tripinfo id="70" depart="209.00" departLane="E0_0" departPos="5.10" departSpeed="0.00" departDelay="130.00" arrival="311.00" arrivalLane="E3_0" arrivalPos="90.46" arrivalSpeed="29.41" duration="102.00" routeLength="1314.99" waitingTime="0.00" waitingCount="0" stopTime="0.00" timeLoss="23.09" rerouteNo="0" devices="tripinfo_70" vType="DEFAULT_VEHTYPE" speedFactor="1.04" vaporized=""/>
    <tripinfo id="72" depart="215.00" departLane="E0_0" departPos="5.10" departSpeed="0.00" departDelay="132.00" arrival="313.00" arrivalLane="E3_0" arrivalPos="90.46" arrivalSpeed="29.13" duration="98.00" routeLength="1314.99" waitingTime="0.00" waitingCount="0" stopTime="0.00" timeLoss="17.16" rerouteNo="0" devices="tripinfo_72" vType="DEFAULT_VEHTYPE" speedFactor="1.02" vaporized=""/>
    <tripinfo id="73" depart="218.00" departLane="E0_0" departPos="5.10" departSpeed="0.00" departDelay="131.00" arrival="317.00" arrivalLane="E3_0" arrivalPos="90.46" arrivalSpeed="27.97" duration="99.00" routeLength="1314.99" waitingTime="0.00" waitingCount="0" stopTime="0.00" timeLoss="14.81" rerouteNo="0" devices="tripinfo_73" vType="DEFAULT_VEHTYPE" speedFactor="0.97" vaporized=""/>
    <tripinfo id="74" depart="221.00" departLane="E0_0" departPos="5.10" departSpeed="0.00" departDelay="134.00" arrival="324.00" arrivalLane="E3_0" arrivalPos="90.46" arrivalSpeed="27.32" duration="103.00" routeLength="1314.99" waitingTime="0.00" waitingCount="0" stopTime="0.00" timeLoss="15.09" rerouteNo="0" devices="tripinfo_74" vType="DEFAULT_VEHTYPE" speedFactor="0.94" vaporized=""/>
    <tripinfo id="76" depart="227.00" departLane="E0_0" departPos="5.10" departSpeed="0.00" departDelay="137.00" arrival="329.00" arrivalLane="E3_0" arrivalPos="90.46" arrivalSpeed="27.52" duration="102.00" routeLength="1314.99" waitingTime="0.00" waitingCount="0" stopTime="0.00" timeLoss="15.44" rerouteNo="0" devices="tripinfo_76" vType="DEFAULT_VEHTYPE" speedFactor="0.96" vaporized=""/>
    <tripinfo id="77" depart="230.00" departLane="E0_0" departPos="5.10" departSpeed="0.00" departDelay="138.00" arrival="330.00" arrivalLane="E3_0" arrivalPos="90.46" arrivalSpeed="29.47" duration="100.00" routeLength="1314.99" waitingTime="0.00" waitingCount="0" stopTime="0.00" timeLoss="16.60" rerouteNo="0" devices="tripinfo_77" vType="DEFAULT_VEHTYPE" speedFactor="0.98" vaporized=""/>
    <tripinfo id="78" depart="233.00" departLane="E0_0" departPos="5.10" departSpeed="0.00" departDelay="140.00" arrival="332.00" arrivalLane="E3_0" arrivalPos="90.46" arrivalSpeed="30.58" duration="99.00" routeLength="1314.99" waitingTime="0.00" waitingCount="0" stopTime="0.00" timeLoss="18.86" rerouteNo="0" devices="tripinfo_78" vType="DEFAULT_VEHTYPE" speedFactor="1.03" vaporized=""/>
    <tripinfo id="79" depart="236.00" departLane="E0_0" departPos="5.10" departSpeed="0.00" departDelay="142.00" arrival="334.00" arrivalLane="E3_0" arrivalPos="90.46" arrivalSpeed="28.34" duration="98.00" routeLength="1314.99" waitingTime="0.00" waitingCount="0" stopTime="0.00" timeLoss="14.59" rerouteNo="0" devices="tripinfo_79" vType="DEFAULT_VEHTYPE" speedFactor="0.98" vaporized=""/>
    <tripinfo id="81" depart="242.00" departLane="E0_0" departPos="5.10" departSpeed="0.00" departDelay="146.00" arrival="335.00" arrivalLane="E3_0" arrivalPos="90.46" arrivalSpeed="30.70" duration="93.00" routeLength="1314.99" waitingTime="0.00" waitingCount="0" stopTime="0.00" timeLoss="17.99" rerouteNo="0" devices="tripinfo_81" vType="DEFAULT_VEHTYPE" speedFactor="1.09" vaporized=""/>
    <tripinfo id="82" depart="245.00" departLane="E0_0" departPos="5.10" departSpeed="0.00" departDelay="149.00" arrival="340.00" arrivalLane="E3_0" arrivalPos="90.46" arrivalSpeed="30.30" duration="95.00" routeLength="1314.99" waitingTime="0.00" waitingCount="0" stopTime="0.00" timeLoss="15.04" rerouteNo="0" devices="tripinfo_82" vType="DEFAULT_VEHTYPE" speedFactor="1.03" vaporized=""/>
    <tripinfo id="83" depart="248.00" departLane="E0_0" departPos="5.10" departSpeed="0.00" departDelay="151.00" arrival="346.00" arrivalLane="E3_0" arrivalPos="90.46" arrivalSpeed="29.19" duration="98.00" routeLength="1314.99" waitingTime="0.00" waitingCount="0" stopTime="0.00" timeLoss="15.10" rerouteNo="0" devices="tripinfo_83" vType="DEFAULT_VEHTYPE" speedFactor="1.00" vaporized=""/>
    <tripinfo id="85" depart="254.00" departLane="E0_0" departPos="5.10" departSpeed="0.00" departDelay="153.00" arrival="354.00" arrivalLane="E3_0" arrivalPos="90.46" arrivalSpeed="29.00" duration="100.00" routeLength="1314.99" waitingTime="0.00" waitingCount="0" stopTime="0.00" timeLoss="15.02" rerouteNo="0" devices="tripinfo_85" vType="DEFAULT_VEHTYPE" speedFactor="0.97" vaporized=""/>
    <tripinfo id="87" depart="260.00" departLane="E0_0" departPos="5.10" departSpeed="0.00" departDelay="158.00" arrival="357.00" arrivalLane="E3_0" arrivalPos="90.46" arrivalSpeed="28.34" duration="97.00" routeLength="1314.99" waitingTime="0.00" waitingCount="0" stopTime="0.00" timeLoss="12.81" rerouteNo="0" devices="tripinfo_87" vType="DEFAULT_VEHTYPE" speedFactor="0.98" vaporized=""/>
    <tripinfo id="21" depart="60.00" departLane="E0_0" departPos="5.10" departSpeed="0.00" departDelay="29.00" arrival="366.00" arrivalLane="E3_0" arrivalPos="90.46" arrivalSpeed="24.42" duration="306.00" routeLength="1317.38" waitingTime="181.00" waitingCount="6" stopTime="0.00" timeLoss="232.05" rerouteNo="0" devices="tripinfo_21" vType="DEFAULT_VEHTYPE" speedFactor="1.16" vaporized=""/>
    <tripinfo id="91" depart="272.00" departLane="E0_0" departPos="5.10" departSpeed="0.00" departDelay="166.00" arrival="368.00" arrivalLane="E3_0" arrivalPos="90.46" arrivalSpeed="28.54" duration="96.00" routeLength="1314.99" waitingTime="0.00" waitingCount="0" stopTime="0.00" timeLoss="15.47" rerouteNo="0" devices="tripinfo_91" vType="DEFAULT_VEHTYPE" speedFactor="1.02" vaporized=""/>
    <tripinfo id="92" depart="275.00" departLane="E0_0" departPos="5.10" departSpeed="0.00" departDelay="166.00" arrival="370.00" arrivalLane="E3_0" arrivalPos="90.46" arrivalSpeed="29.90" duration="95.00" routeLength="1314.99" waitingTime="0.00" waitingCount="0" stopTime="0.00" timeLoss="13.86" rerouteNo="0" devices="tripinfo_92" vType="DEFAULT_VEHTYPE" speedFactor="1.02" vaporized=""/>
    <tripinfo id="23" depart="66.00" departLane="E0_0" departPos="5.10" departSpeed="0.00" departDelay="34.00" arrival="379.00" arrivalLane="E3_0" arrivalPos="90.46" arrivalSpeed="23.76" duration="313.00" routeLength="1317.38" waitingTime="177.00" waitingCount="6" stopTime="0.00" timeLoss="228.04" rerouteNo="0" devices="tripinfo_23" vType="DEFAULT_VEHTYPE" speedFactor="1.01" vaporized=""/>
    <tripinfo id="25" depart="72.00" departLane="E0_0" departPos="5.10" departSpeed="0.00" departDelay="39.00" arrival="380.00" arrivalLane="E3_0" arrivalPos="90.46" arrivalSpeed="24.18" duration="308.00" routeLength="1317.38" waitingTime="159.00" waitingCount="5" stopTime="0.00" timeLoss="212.06" rerouteNo="0" devices="tripinfo_25" vType="DEFAULT_VEHTYPE" speedFactor="0.89" vaporized=""/>
    <tripinfo id="26" depart="75.00" departLane="E0_0" departPos="5.10" departSpeed="0.00" departDelay="41.00" arrival="383.00" arrivalLane="E3_0" arrivalPos="90.46" arrivalSpeed="23.79" duration="308.00" routeLength="1317.38" waitingTime="156.00" waitingCount="5" stopTime="0.00" timeLoss="204.00" rerouteNo="0" devices="tripinfo_26" vType="DEFAULT_VEHTYPE" speedFactor="0.83" vaporized=""/>
    <tripinfo id="27" depart="78.00" departLane="E0_0" departPos="5.10" departSpeed="0.00" departDelay="43.00" arrival="384.00" arrivalLane="E3_0" arrivalPos="90.46" arrivalSpeed="23.77" duration="306.00" routeLength="1317.38" waitingTime="153.00" waitingCount="5" stopTime="0.00" timeLoss="208.08" rerouteNo="0" devices="tripinfo_27" vType="DEFAULT_VEHTYPE" speedFactor="0.87" vaporized=""/>
    <tripinfo id="28" depart="81.00" departLane="E0_0" departPos="5.10" departSpeed="0.00" departDelay="46.00" arrival="388.00" arrivalLane="E3_0" arrivalPos="90.46" arrivalSpeed="24.34" duration="307.00" routeLength="1317.38" waitingTime="151.00" waitingCount="5" stopTime="0.00" timeLoss="213.39" rerouteNo="0" devices="tripinfo_28" vType="DEFAULT_VEHTYPE" speedFactor="0.92" vaporized=""/>
    <tripinfo id="94" depart="281.00" departLane="E0_0" departPos="5.10" departSpeed="0.00" departDelay="167.00" arrival="393.00" arrivalLane="E3_0" arrivalPos="90.46" arrivalSpeed="24.01" duration="112.00" routeLength="1314.99" waitingTime="0.00" waitingCount="0" stopTime="0.00" timeLoss="13.60" rerouteNo="0" devices="tripinfo_94" vType="DEFAULT_VEHTYPE" speedFactor="0.83" vaporized=""/>
    <tripinfo id="95" depart="284.00" departLane="E0_0" departPos="5.10" departSpeed="0.00" departDelay="167.00" arrival="395.00" arrivalLane="E3_0" arrivalPos="90.46" arrivalSpeed="26.86" duration="111.00" routeLength="1314.99" waitingTime="0.00" waitingCount="0" stopTime="0.00" timeLoss="21.33" rerouteNo="0" devices="tripinfo_95" vType="DEFAULT_VEHTYPE" speedFactor="0.92" vaporized=""/>
    <tripinfo id="96" depart="287.00" departLane="E0_0" departPos="5.10" departSpeed="0.00" departDelay="170.00" arrival="396.00" arrivalLane="E3_0" arrivalPos="90.46" arrivalSpeed="26.91" duration="109.00" routeLength="1314.99" waitingTime="0.00" waitingCount="0" stopTime="0.00" timeLoss="33.64" rerouteNo="0" devices="tripinfo_96" vType="DEFAULT_VEHTYPE" speedFactor="1.09" vaporized=""/>
    <tripinfo id="100" depart="299.00" departLane="E0_0" departPos="5.10" departSpeed="0.00" departDelay="176.00" arrival="398.00" arrivalLane="E3_0" arrivalPos="90.46" arrivalSpeed="28.43" duration="99.00" routeLength="1314.99" waitingTime="0.00" waitingCount="0" stopTime="0.00" timeLoss="25.16" rerouteNo="0" devices="tripinfo_100" vType="DEFAULT_VEHTYPE" speedFactor="1.12" vaporized=""/>
    <tripinfo id="101" depart="302.00" departLane="E0_0" departPos="5.10" departSpeed="0.00" departDelay="179.00" arrival="399.00" arrivalLane="E3_0" arrivalPos="90.46" arrivalSpeed="28.49" duration="97.00" routeLength="1314.99" waitingTime="0.00" waitingCount="0" stopTime="0.00" timeLoss="21.93" rerouteNo="0" devices="tripinfo_101" vType="DEFAULT_VEHTYPE" speedFactor="1.10" vaporized=""/>
    <tripinfo id="103" depart="308.00" departLane="E0_0" departPos="5.10" departSpeed="0.00" departDelay="184.00" arrival="408.00" arrivalLane="E3_0" arrivalPos="90.46" arrivalSpeed="27.60" duration="100.00" routeLength="1314.99" waitingTime="0.00" waitingCount="0" stopTime="0.00" timeLoss="14.40" rerouteNo="0" devices="tripinfo_103" vType="DEFAULT_VEHTYPE" speedFactor="0.96" vaporized=""/>
    <tripinfo id="107" depart="320.00" departLane="E0_0" departPos="5.10" departSpeed="0.00" departDelay="187.00" arrival="410.00" arrivalLane="E3_0" arrivalPos="90.46" arrivalSpeed="31.67" duration="90.00" routeLength="1314.99" waitingTime="0.00" waitingCount="0" stopTime="0.00" timeLoss="13.52" rerouteNo="0" devices="tripinfo_107" vType="DEFAULT_VEHTYPE" speedFactor="1.07" vaporized=""/>