<?xml version="1.0" encoding="UTF-8"?>

<!-- generated on 2023-05-01 14:49:02 by Eclipse SUMO sumo Version 1.16.0
<configuration xmlns:xsi="http://www.w3.org/2001/XMLSchema-instance" xsi:noNamespaceSchemaLocation="http://sumo.dlr.de/xsd/sumoConfiguration.xsd">

    <input>
        <net-file value="C:\Users\Local_Man\Desktop\Stolen%20Music\school%20stuff%20for%20college\Semester%2015%20(UH%20Graduate%20School)\COSC%206364%20Nikolaos\SUMO_Project\COSC6364_Project\configurations\maps\Braess_Homebrew_fixed1.net.xml"/>
        <route-files value="./configurations/Rounds/Braess_Homebrew_fixed1.net.xml-small_test-0/Macroscopic_DUE/002/Trips_File_002.rou.xml"/>
    </input>

    <output>
        <summary-output value="./configurations/Rounds/Braess_Homebrew_fixed1.net.xml-small_test-0/Macroscopic_DUE/002/summary.xml"/>
        <tripinfo-output value="./configurations/Rounds/Braess_Homebrew_fixed1.net.xml-small_test-0/Macroscopic_DUE/002/trips.trips.xml"/>
        <statistic-output value="./configurations/Rounds/Braess_Homebrew_fixed1.net.xml-small_test-0/Macroscopic_DUE/002/stats_output.xml"/>
    </output>

    <time>
        <begin value="0"/>
    </time>

    <report>
        <log value="./configurations/Rounds/Braess_Homebrew_fixed1.net.xml-small_test-0/Macroscopic_DUE/002/log.sumo.log"/>
        <no-step-log value="true"/>
    </report>

    <gui_only>
        <quit-on-end value="true"/>
    </gui_only>

</configuration>
-->

<tripinfos xmlns:xsi="http://www.w3.org/2001/XMLSchema-instance" xsi:noNamespaceSchemaLocation="http://sumo.dlr.de/xsd/tripinfo_file.xsd">
    <tripinfo id="2" depart="0.00" departLane="E0_0" departPos="5.10" departSpeed="19.50" departDelay="0.00" arrival="94.00" arrivalLane="E3_0" arrivalPos="90.46" arrivalSpeed="28.43" duration="94.00" routeLength="1314.99" waitingTime="0.00" waitingCount="0" stopTime="0.00" timeLoss="9.57" rerouteNo="0" devices="tripinfo_2" vType="DEFAULT_VEHTYPE" speedFactor="0.98" vaporized=""/>
    <tripinfo id="4" depart="2.00" departLane="E0_0" departPos="5.10" departSpeed="14.44" departDelay="1.00" arrival="95.00" arrivalLane="E3_0" arrivalPos="90.46" arrivalSpeed="30.29" duration="93.00" routeLength="1314.99" waitingTime="0.00" waitingCount="0" stopTime="0.00" timeLoss="24.78" rerouteNo="0" devices="tripinfo_4" vType="DEFAULT_VEHTYPE" speedFactor="1.20" vaporized=""/>
    <tripinfo id="5" depart="6.00" departLane="E0_0" departPos="5.10" departSpeed="20.92" departDelay="0.00" arrival="97.00" arrivalLane="E3_0" arrivalPos="90.46" arrivalSpeed="31.12" duration="91.00" routeLength="1314.99" waitingTime="0.00" waitingCount="0" stopTime="0.00" timeLoss="12.07" rerouteNo="0" devices="tripinfo_5" vType="DEFAULT_VEHTYPE" speedFactor="1.05" vaporized=""/>
    <tripinfo id="7" depart="8.00" departLane="E0_0" departPos="5.10" departSpeed="16.37" departDelay="1.00" arrival="109.00" arrivalLane="E3_0" arrivalPos="90.46" arrivalSpeed="27.68" duration="101.00" routeLength="1314.99" waitingTime="0.00" waitingCount="0" stopTime="0.00" timeLoss="13.39" rerouteNo="0" devices="tripinfo_7" vType="DEFAULT_VEHTYPE" speedFactor="0.94" vaporized=""/>
    <tripinfo id="9" depart="10.00" departLane="E0_0" departPos="5.10" departSpeed="10.49" departDelay="3.00" arrival="111.00" arrivalLane="E3_0" arrivalPos="90.46" arrivalSpeed="30.98" duration="101.00" routeLength="1314.99" waitingTime="0.00" waitingCount="0" stopTime="0.00" timeLoss="25.09" rerouteNo="0" devices="tripinfo_9" vType="DEFAULT_VEHTYPE" speedFactor="1.09" vaporized=""/>
    <tripinfo id="10" depart="11.00" departLane="E0_0" departPos="5.10" departSpeed="5.56" departDelay="3.00" arrival="119.00" arrivalLane="E3_0" arrivalPos="90.46" arrivalSpeed="26.40" duration="108.00" routeLength="1314.99" waitingTime="0.00" waitingCount="0" stopTime="0.00" timeLoss="19.09" rerouteNo="0" devices="tripinfo_10" vType="DEFAULT_VEHTYPE" speedFactor="0.92" vaporized=""/>
    <tripinfo id="13" depart="17.00" departLane="E0_0" departPos="5.10" departSpeed="3.54" departDelay="7.00" arrival="126.00" arrivalLane="E3_0" arrivalPos="90.46" arrivalSpeed="27.60" duration="109.00" routeLength="1314.99" waitingTime="0.00" waitingCount="0" stopTime="0.00" timeLoss="19.84" rerouteNo="0" devices="tripinfo_13" vType="DEFAULT_VEHTYPE" speedFactor="0.93" vaporized=""/>
    <tripinfo id="15" depart="21.00" departLane="E0_0" departPos="5.10" departSpeed="1.85" departDelay="9.00" arrival="128.00" arrivalLane="E3_0" arrivalPos="90.46" arrivalSpeed="27.12" duration="107.00" routeLength="1314.99" waitingTime="0.00" waitingCount="0" stopTime="0.00" timeLoss="19.77" rerouteNo="0" devices="tripinfo_15" vType="DEFAULT_VEHTYPE" speedFactor="0.94" vaporized=""/>
    <tripinfo id="16" depart="24.00" departLane="E0_0" departPos="5.10" departSpeed="3.96" departDelay="12.00" arrival="130.00" arrivalLane="E3_0" arrivalPos="90.46" arrivalSpeed="31.40" duration="106.00" routeLength="1314.99" waitingTime="0.00" waitingCount="0" stopTime="0.00" timeLoss="29.85" rerouteNo="0" devices="tripinfo_16" vType="DEFAULT_VEHTYPE" speedFactor="1.08" vaporized=""/>
    <tripinfo id="17" depart="26.00" departLane="E0_0" departPos="5.10" departSpeed="2.10" departDelay="13.00" arrival="131.00" arrivalLane="E3_0" arrivalPos="90.46" arrivalSpeed="29.51" duration="105.00" routeLength="1314.99" waitingTime="0.00" waitingCount="0" stopTime="0.00" timeLoss="23.84" rerouteNo="0" devices="tripinfo_17" vType="DEFAULT_VEHTYPE" speedFactor="1.01" vaporized=""/>
    <tripinfo id="18" depart="29.00" departLane="E0_0" departPos="5.10" departSpeed="4.53" departDelay="16.00" arrival="133.00" arrivalLane="E3_0" arrivalPos="90.46" arrivalSpeed="30.72" duration="104.00" routeLength="1314.99" waitingTime="0.00" waitingCount="0" stopTime="0.00" timeLoss="23.61" rerouteNo="0" devices="tripinfo_18" vType="DEFAULT_VEHTYPE" speedFactor="1.03" vaporized=""/>
    <tripinfo id="19" depart="31.00" departLane="E0_0" departPos="5.10" departSpeed="3.51" departDelay="16.00" arrival="143.00" arrivalLane="E3_0" arrivalPos="90.46" arrivalSpeed="26.51" duration="112.00" routeLength="1314.99" waitingTime="0.00" waitingCount="0" stopTime="0.00" timeLoss="19.54" rerouteNo="0" devices="tripinfo_19" vType="DEFAULT_VEHTYPE" speedFactor="0.89" vaporized=""/>
    <tripinfo id="25" depart="44.00" departLane="E0_0" departPos="5.10" departSpeed="4.94" departDelay="21.00" arrival="144.00" arrivalLane="E3_0" arrivalPos="90.46" arrivalSpeed="28.14" duration="100.00" routeLength="1314.99" waitingTime="0.00" waitingCount="0" stopTime="0.00" timeLoss="28.73" rerouteNo="0" devices="tripinfo_25" vType="DEFAULT_VEHTYPE" speedFactor="1.15" vaporized=""/>
    <tripinfo id="26" depart="46.00" departLane="E0_0" departPos="5.10" departSpeed="3.73" departDelay="23.00" arrival="145.00" arrivalLane="E3_0" arrivalPos="90.46" arrivalSpeed="28.40" duration="99.00" routeLength="1314.99" waitingTime="0.00" waitingCount="0" stopTime="0.00" timeLoss="26.04" rerouteNo="0" devices="tripinfo_26" vType="DEFAULT_VEHTYPE" speedFactor="1.12" vaporized=""/>
    <tripinfo id="27" depart="49.00" departLane="E0_0" departPos="5.10" departSpeed="6.72" departDelay="26.00" arrival="152.00" arrivalLane="E3_0" arrivalPos="90.46" arrivalSpeed="29.52" duration="103.00" routeLength="1314.99" waitingTime="0.00" waitingCount="0" stopTime="0.00" timeLoss="20.06" rerouteNo="0" devices="tripinfo_27" vType="DEFAULT_VEHTYPE" speedFactor="0.99" vaporized=""/>
    <tripinfo id="29" depart="53.00" departLane="E0_0" departPos="5.10" departSpeed="4.41" departDelay="29.00" arrival="154.00" arrivalLane="E3_0" arrivalPos="90.46" arrivalSpeed="30.05" duration="101.00" routeLength="1314.99" waitingTime="0.00" waitingCount="0" stopTime="0.00" timeLoss="20.34" rerouteNo="0" devices="tripinfo_29" vType="DEFAULT_VEHTYPE" speedFactor="1.02" vaporized=""/>
    <tripinfo id="30" depart="55.00" departLane="E0_0" departPos="5.10" departSpeed="4.05" departDelay="30.00" arrival="163.00" arrivalLane="E3_0" arrivalPos="90.46" arrivalSpeed="27.77" duration="108.00" routeLength="1314.99" waitingTime="0.00" waitingCount="0" stopTime="0.00" timeLoss="20.12" rerouteNo="0" devices="tripinfo_30" vType="DEFAULT_VEHTYPE" speedFactor="0.94" vaporized=""/>
    <tripinfo id="31" depart="58.00" departLane="E0_0" departPos="5.10" departSpeed="6.78" departDelay="33.00" arrival="164.00" arrivalLane="E3_0" arrivalPos="90.46" arrivalSpeed="29.54" duration="106.00" routeLength="1314.99" waitingTime="0.00" waitingCount="0" stopTime="0.00" timeLoss="31.35" rerouteNo="0" devices="tripinfo_31" vType="DEFAULT_VEHTYPE" speedFactor="1.10" vaporized=""/>
    <tripinfo id="3" depart="1.00" departLane="E0_0" departPos="5.10" departSpeed="16.96" departDelay="0.00" arrival="174.00" arrivalLane="E3_0" arrivalPos="90.46" arrivalSpeed="25.32" duration="173.00" routeLength="1317.38" waitingTime="71.00" waitingCount="1" stopTime="0.00" timeLoss="93.42" rerouteNo="0" devices="tripinfo_3" vType="DEFAULT_VEHTYPE" speedFactor="1.08" vaporized=""/>
    <tripinfo id="32" depart="60.00" departLane="E0_0" departPos="5.10" departSpeed="7.92" departDelay="32.00" arrival="179.00" arrivalLane="E3_0" arrivalPos="90.46" arrivalSpeed="24.97" duration="119.00" routeLength="1314.99" waitingTime="0.00" waitingCount="0" stopTime="0.00" timeLoss="20.14" rerouteNo="0" devices="tripinfo_32" vType="DEFAULT_VEHTYPE" speedFactor="0.83" vaporized=""/>
    <tripinfo id="33" depart="61.00" departLane="E0_0" departPos="5.10" departSpeed="3.56" departDelay="33.00" arrival="180.00" arrivalLane="E3_0" arrivalPos="90.46" arrivalSpeed="27.01" duration="119.00" routeLength="1314.99" waitingTime="0.00" waitingCount="0" stopTime="0.00" timeLoss="39.05" rerouteNo="0" devices="tripinfo_33" vType="DEFAULT_VEHTYPE" speedFactor="1.03" vaporized=""/>
    <tripinfo id="34" depart="65.00" departLane="E0_0" departPos="5.10" departSpeed="2.91" departDelay="36.00" arrival="181.00" arrivalLane="E3_0" arrivalPos="90.46" arrivalSpeed="26.77" duration="116.00" routeLength="1314.99" waitingTime="0.00" waitingCount="0" stopTime="0.00" timeLoss="39.31" rerouteNo="0" devices="tripinfo_34" vType="DEFAULT_VEHTYPE" speedFactor="1.07" vaporized=""/>
    <tripinfo id="6" depart="7.00" departLane="E0_0" departPos="5.10" departSpeed="19.19" departDelay="0.00" arrival="191.00" arrivalLane="E3_0" arrivalPos="90.46" arrivalSpeed="25.98" duration="184.00" routeLength="1317.38" waitingTime="77.00" waitingCount="2" stopTime="0.00" timeLoss="104.15" rerouteNo="0" devices="tripinfo_6" vType="DEFAULT_VEHTYPE" speedFactor="1.08" vaporized=""/>
    <tripinfo id="36" depart="70.00" departLane="E0_0" departPos="5.10" departSpeed="4.76" departDelay="38.00" arrival="197.00" arrivalLane="E3_0" arrivalPos="90.46" arrivalSpeed="22.92" duration="127.00" routeLength="1314.99" waitingTime="0.00" waitingCount="0" stopTime="0.00" timeLoss="20.53" rerouteNo="0" devices="tripinfo_36" vType="DEFAULT_VEHTYPE" speedFactor="0.77" vaporized=""/>
    <tripinfo id="38" depart="74.00" departLane="E0_0" departPos="5.10" departSpeed="6.19" departDelay="40.00" arrival="199.00" arrivalLane="E3_0" arrivalPos="90.46" arrivalSpeed="25.77" duration="125.00" routeLength="1314.99" waitingTime="0.00" waitingCount="0" stopTime="0.00" timeLoss="44.23" rerouteNo="0" devices="tripinfo_38" vType="DEFAULT_VEHTYPE" speedFactor="1.02" vaporized=""/>
    <tripinfo id="39" depart="76.00" departLane="E0_0" departPos="5.10" departSpeed="5.35" departDelay="41.00" arrival="200.00" arrivalLane="E3_0" arrivalPos="90.46" arrivalSpeed="25.25" duration="124.00" routeLength="1314.99" waitingTime="0.00" waitingCount="0" stopTime="0.00" timeLoss="30.17" rerouteNo="0" devices="tripinfo_39" vType="DEFAULT_VEHTYPE" speedFactor="0.88" vaporized=""/>
    <tripinfo id="40" depart="78.00" departLane="E0_0" departPos="5.10" departSpeed="4.82" departDelay="43.00" arrival="201.00" arrivalLane="E3_0" arrivalPos="90.46" arrivalSpeed="26.11" duration="123.00" routeLength="1314.99" waitingTime="0.00" waitingCount="0" stopTime="0.00" timeLoss="46.25" rerouteNo="0" devices="tripinfo_40" vType="DEFAULT_VEHTYPE" speedFactor="1.06" vaporized=""/>
    <tripinfo id="41" depart="80.00" departLane="E0_0" departPos="5.10" departSpeed="4.97" departDelay="45.00" arrival="203.00" arrivalLane="E3_0" arrivalPos="90.46" arrivalSpeed="28.64" duration="123.00" routeLength="1314.99" waitingTime="0.00" waitingCount="0" stopTime="0.00" timeLoss="52.66" rerouteNo="0" devices="tripinfo_41" vType="DEFAULT_VEHTYPE" speedFactor="1.17" vaporized=""/>
    <tripinfo id="42" depart="82.00" departLane="E0_0" departPos="5.10" departSpeed="1.50" departDelay="43.00" arrival="204.00" arrivalLane="E3_0" arrivalPos="90.46" arrivalSpeed="28.24" duration="122.00" routeLength="1314.99" waitingTime="0.00" waitingCount="0" stopTime="0.00" timeLoss="43.72" rerouteNo="0" devices="tripinfo_42" vType="DEFAULT_VEHTYPE" speedFactor="1.05" vaporized=""/>
    <tripinfo id="43" depart="85.00" departLane="E0_0" departPos="5.10" departSpeed="0.52" departDelay="43.00" arrival="206.00" arrivalLane="E3_0" arrivalPos="90.46" arrivalSpeed="29.53" duration="121.00" routeLength="1314.99" waitingTime="0.00" waitingCount="0" stopTime="0.00" timeLoss="39.01" rerouteNo="0" devices="tripinfo_43" vType="DEFAULT_VEHTYPE" speedFactor="1.00" vaporized=""/>
    <tripinfo id="44" depart="89.00" departLane="E0_0" departPos="5.10" departSpeed="3.79" departDelay="47.00" arrival="207.00" arrivalLane="E3_0" arrivalPos="90.46" arrivalSpeed="29.62" duration="118.00" routeLength="1314.99" waitingTime="0.00" waitingCount="0" stopTime="0.00" timeLoss="43.46" rerouteNo="0" devices="tripinfo_44" vType="DEFAULT_VEHTYPE" speedFactor="1.10" vaporized=""/>
    <tripinfo id="45" depart="91.00" departLane="E0_0" departPos="5.10" departSpeed="0.35" departDelay="49.00" arrival="209.00" arrivalLane="E3_0" arrivalPos="90.46" arrivalSpeed="25.76" duration="118.00" routeLength="1314.99" waitingTime="0.00" waitingCount="0" stopTime="0.00" timeLoss="26.51" rerouteNo="0" devices="tripinfo_45" vType="DEFAULT_VEHTYPE" speedFactor="0.90" vaporized=""/>
    <tripinfo id="46" depart="95.00" departLane="E0_0" departPos="5.10" departSpeed="6.05" departDelay="52.00" arrival="210.00" arrivalLane="E3_0" arrivalPos="90.46" arrivalSpeed="28.39" duration="115.00" routeLength="1314.99" waitingTime="0.00" waitingCount="0" stopTime="0.00" timeLoss="29.82" rerouteNo="0" devices="tripinfo_46" vType="DEFAULT_VEHTYPE" speedFactor="0.96" vaporized=""/>
    <tripinfo id="49" depart="101.00" departLane="E0_0" departPos="5.10" departSpeed="5.58" departDelay="57.00" arrival="212.00" arrivalLane="E3_0" arrivalPos="90.46" arrivalSpeed="30.88" duration="111.00" routeLength="1314.99" waitingTime="0.00" waitingCount="0" stopTime="0.00" timeLoss="36.93" rerouteNo="0" devices="tripinfo_49" vType="DEFAULT_VEHTYPE" speedFactor="1.12" vaporized=""/>
    <tripinfo id="50" depart="103.00" departLane="E0_0" departPos="5.10" departSpeed="5.15" departDelay="58.00" arrival="213.00" arrivalLane="E3_0" arrivalPos="90.46" arrivalSpeed="28.84" duration="110.00" routeLength="1314.99" waitingTime="0.00" waitingCount="0" stopTime="0.00" timeLoss="27.78" rerouteNo="0" devices="tripinfo_50" vType="DEFAULT_VEHTYPE" speedFactor="1.00" vaporized=""/>
    <tripinfo id="51" depart="105.00" departLane="E0_0" departPos="5.10" departSpeed="4.97" departDelay="58.00" arrival="215.00" arrivalLane="E3_0" arrivalPos="90.46" arrivalSpeed="28.99" duration="110.00" routeLength="1314.99" waitingTime="0.00" waitingCount="0" stopTime="0.00" timeLoss="26.54" rerouteNo="0" devices="tripinfo_51" vType="DEFAULT_VEHTYPE" speedFactor="0.99" vaporized=""/>
    <tripinfo id="53" depart="111.00" departLane="E0_0" departPos="5.10" departSpeed="6.53" departDelay="63.00" arrival="224.00" arrivalLane="E3_0" arrivalPos="90.46" arrivalSpeed="27.10" duration="113.00" routeLength="1314.99" waitingTime="0.00" waitingCount="0" stopTime="0.00" timeLoss="22.24" rerouteNo="0" devices="tripinfo_53" vType="DEFAULT_VEHTYPE" speedFactor="0.91" vaporized=""/>
    <tripinfo id="54" depart="113.00" departLane="E0_0" departPos="5.10" departSpeed="7.58" departDelay="64.00" arrival="225.00" arrivalLane="E3_0" arrivalPos="90.46" arrivalSpeed="27.14" duration="112.00" routeLength="1314.99" waitingTime="0.00" waitingCount="0" stopTime="0.00" timeLoss="25.55" rerouteNo="0" devices="tripinfo_54" vType="DEFAULT_VEHTYPE" speedFactor="0.95" vaporized=""/>
    <tripinfo id="56" depart="117.00" departLane="E0_0" departPos="5.10" departSpeed="4.73" departDelay="64.00" arrival="229.00" arrivalLane="E3_0" arrivalPos="90.46" arrivalSpeed="26.58" duration="112.00" routeLength="1314.99" waitingTime="0.00" waitingCount="0" stopTime="0.00" timeLoss="23.30" rerouteNo="0" devices="tripinfo_56" vType="DEFAULT_VEHTYPE" speedFactor="0.93" vaporized=""/>
    <tripinfo id="60" depart="127.00" departLane="E0_0" departPos="5.10" departSpeed="2.72" departDelay="69.00" arrival="239.00" arrivalLane="E3_0" arrivalPos="90.46" arrivalSpeed="26.99" duration="112.00" routeLength="1314.99" waitingTime="0.00" waitingCount="0" stopTime="0.00" timeLoss="22.64" rerouteNo="0" devices="tripinfo_60" vType="DEFAULT_VEHTYPE" speedFactor="0.92" vaporized=""/>
    <tripinfo id="62" depart="132.00" departLane="E0_0" departPos="5.10" departSpeed="4.18" departDelay="73.00" arrival="245.00" arrivalLane="E3_0" arrivalPos="90.46" arrivalSpeed="26.79" duration="113.00" routeLength="1314.99" waitingTime="0.00" waitingCount="0" stopTime="0.00" timeLoss="21.61" rerouteNo="0" devices="tripinfo_62" vType="DEFAULT_VEHTYPE" speedFactor="0.90" vaporized=""/>
    <tripinfo id="64" depart="137.00" departLane="E0_0" departPos="5.10" departSpeed="3.69" departDelay="74.00" arrival="247.00" arrivalLane="E3_0" arrivalPos="90.46" arrivalSpeed="30.78" duration="110.00" routeLength="1314.99" waitingTime="0.00" waitingCount="0" stopTime="0.00" timeLoss="33.57" rerouteNo="0" devices="tripinfo_64" vType="DEFAULT_VEHTYPE" speedFactor="1.08" vaporized=""/>
    <tripinfo id="65" depart="140.00" departLane="E0_0" departPos="5.10" departSpeed="0.86" departDelay="77.00" arrival="248.00" arrivalLane="E3_0" arrivalPos="90.46" arrivalSpeed="28.99" duration="108.00" routeLength="1314.99" waitingTime="0.00" waitingCount="0" stopTime="0.00" timeLoss="23.78" rerouteNo="0" devices="tripinfo_65" vType="DEFAULT_VEHTYPE" speedFactor="0.98" vaporized=""/>
    <tripinfo id="66" depart="143.00" departLane="E0_0" departPos="5.10" departSpeed="0.15" departDelay="75.00" arrival="250.00" arrivalLane="E3_0" arrivalPos="90.46" arrivalSpeed="28.34" duration="107.00" routeLength="1314.99" waitingTime="1.00" waitingCount="1" stopTime="0.00" timeLoss="22.70" rerouteNo="0" devices="tripinfo_66" vType="DEFAULT_VEHTYPE" speedFactor="0.98" vaporized=""/>
    <tripinfo id="68" depart="149.00" departLane="E0_0" departPos="5.10" departSpeed="3.24" departDelay="76.00" arrival="255.00" arrivalLane="E3_0" arrivalPos="90.46" arrivalSpeed="27.99" duration="106.00" routeLength="1314.99" waitingTime="0.00" waitingCount="0" stopTime="0.00" timeLoss="18.72" rerouteNo="0" devices="tripinfo_68" vType="DEFAULT_VEHTYPE" speedFactor="0.94" vaporized=""/>
    <tripinfo id="8" depart="9.00" departLane="E0_0" departPos="5.10" departSpeed="13.87" departDelay="2.00" arrival="265.00" arrivalLane="E3_0" arrivalPos="90.46" arrivalSpeed="24.05" duration="256.00" routeLength="1317.38" waitingTime="137.00" waitingCount="3" stopTime="0.00" timeLoss="171.15" rerouteNo="0" devices="tripinfo_8" vType="DEFAULT_VEHTYPE" speedFactor="1.02" vaporized=""/>
    <tripinfo id="69" depart="151.00" departLane="E0_0" departPos="5.10" departSpeed="0.79" departDelay="78.00" arrival="268.00" arrivalLane="E3_0" arrivalPos="90.46" arrivalSpeed="24.57" duration="117.00" routeLength="1314.99" waitingTime="0.00" waitingCount="0" stopTime="0.00" timeLoss="18.64" rerouteNo="0" devices="tripinfo_69" vType="DEFAULT_VEHTYPE" speedFactor="0.83" vaporized=""/>
    <tripinfo id="75" depart="167.00" departLane="E0_0" departPos="5.10" departSpeed="2.05" departDelay="89.00" arrival="270.00" arrivalLane="E3_0" arrivalPos="90.46" arrivalSpeed="27.62" duration="103.00" routeLength="1314.99" waitingTime="0.00" waitingCount="0" stopTime="0.00" timeLoss="27.89" rerouteNo="0" devices="tripinfo_75" vType="DEFAULT_VEHTYPE" speedFactor="1.10" vaporized=""/>
    <tripinfo id="76" depart="170.00" departLane="E0_0" departPos="5.10" departSpeed="5.29" departDelay="92.00" arrival="271.00" arrivalLane="E3_0" arrivalPos="90.46" arrivalSpeed="27.16" duration="101.00" routeLength="1314.99" waitingTime="0.00" waitingCount="0" stopTime="0.00" timeLoss="29.16" rerouteNo="0" devices="tripinfo_76" vType="DEFAULT_VEHTYPE" speedFactor="1.14" vaporized=""/>
    <tripinfo id="77" depart="172.00" departLane="E0_0" departPos="5.10" departSpeed="5.83" departDelay="93.00" arrival="273.00" arrivalLane="E3_0" arrivalPos="90.46" arrivalSpeed="28.65" duration="101.00" routeLength="1314.99" waitingTime="0.00" waitingCount="0" stopTime="0.00" timeLoss="15.88" rerouteNo="0" devices="tripinfo_77" vType="DEFAULT_VEHTYPE" speedFactor="0.97" vaporized=""/>
    <tripinfo id="80" depart="178.00" departLane="E0_0" departPos="5.10" departSpeed="4.70" departDelay="93.00" arrival="274.00" arrivalLane="E3_0" arrivalPos="90.46" arrivalSpeed="28.74" duration="96.00" routeLength="1314.99" waitingTime="0.00" waitingCount="0" stopTime="0.00" timeLoss="19.84" rerouteNo="0" devices="tripinfo_80" vType="DEFAULT_VEHTYPE" speedFactor="1.08" vaporized=""/>
    <tripinfo id="83" depart="185.00" departLane="E0_0" departPos="5.10" departSpeed="0.81" departDelay="96.00" arrival="277.00" arrivalLane="E3_0" arrivalPos="90.46" arrivalSpeed="30.91" duration="92.00" routeLength="1314.99" waitingTime="0.00" waitingCount="0" stopTime="0.00" timeLoss="15.50" rerouteNo="0" devices="tripinfo_83" vType="DEFAULT_VEHTYPE" speedFactor="1.06" vaporized=""/>
    <tripinfo id="11" depart="13.00" departLane="E0_0" departPos="5.10" departSpeed="4.57" departDelay="5.00" arrival="288.00" arrivalLane="E3_0" arrivalPos="90.46" arrivalSpeed="24.90" duration="275.00" routeLength="1317.38" waitingTime="155.00" waitingCount="4" stopTime="0.00" timeLoss="198.59" rerouteNo="0" devices="tripinfo_11" vType="DEFAULT_VEHTYPE" speedFactor="1.12" vaporized=""/>
    <tripinfo id="12" depart="15.00" departLane="E0_0" departPos="5.10" departSpeed="4.25" departDelay="7.00" arrival="290.00" arrivalLane="E3_0" arrivalPos="90.46" arrivalSpeed="25.48" duration="275.00" routeLength="1317.38" waitingTime="140.00" waitingCount="4" stopTime="0.00" timeLoss="179.64" rerouteNo="0" devices="tripinfo_12" vType="DEFAULT_VEHTYPE" speedFactor="0.90" vaporized=""/>
    <tripinfo id="14" depart="19.00" departLane="E0_0" departPos="5.10" departSpeed="3.26" departDelay="8.00" arrival="291.00" arrivalLane="E3_0" arrivalPos="90.46" arrivalSpeed="25.02" duration="272.00" routeLength="1317.38" waitingTime="136.00" waitingCount="4" stopTime="0.00" timeLoss="190.17" rerouteNo="0" devices="tripinfo_14" vType="DEFAULT_VEHTYPE" speedFactor="1.04" vaporized=""/>
    <tripinfo id="20" depart="34.00" departLane="E0_0" departPos="5.10" departSpeed="6.00" departDelay="19.00" arrival="295.00" arrivalLane="E3_0" arrivalPos="90.46" arrivalSpeed="24.65" duration="261.00" routeLength="1317.38" waitingTime="125.00" waitingCount="4" stopTime="0.00" timeLoss="175.85" rerouteNo="0" devices="tripinfo_20" vType="DEFAULT_VEHTYPE" speedFactor="1.01" vaporized=""/>
    <tripinfo id="85" depart="191.00" departLane="E0_0" departPos="5.10" departSpeed="5.36" departDelay="102.00" arrival="301.00" arrivalLane="E3_0" arrivalPos="90.46" arrivalSpeed="24.94" duration="110.00" routeLength="1314.99" waitingTime="0.00" waitingCount="0" stopTime="0.00" timeLoss="14.64" rerouteNo="0" devices="tripinfo_85" vType="DEFAULT_VEHTYPE" speedFactor="0.87" vaporized=""/>
    <tripinfo id="86" depart="193.00" departLane="E0_0" departPos="5.10" departSpeed="5.94" departDelay="104.00" arrival="302.00" arrivalLane="E3_0" arrivalPos="90.46" arrivalSpeed="27.78" duration="109.00" routeLength="1314.99" waitingTime="0.00" waitingCount="0" stopTime="0.00" timeLoss="28.43" rerouteNo="0" devices="tripinfo_86" vType="DEFAULT_VEHTYPE" speedFactor="1.02" vaporized=""/>
    <tripinfo id="88" depart="197.00" departLane="E0_0" departPos="5.10" departSpeed="5.80" departDelay="104.00" arrival="303.00" arrivalLane="E3_0" arrivalPos="90.46" arrivalSpeed="27.70" duration="106.00" routeLength="1314.99" waitingTime="0.00" waitingCount="0" stopTime="0.00" timeLoss="21.49" rerouteNo="0" devices="tripinfo_88" vType="DEFAULT_VEHTYPE" speedFactor="0.97" vaporized=""/>
    <tripinfo id="89" depart="199.00" departLane="E0_0" departPos="5.10" departSpeed="6.10" departDelay="104.00" arrival="305.00" arrivalLane="E3_0" arrivalPos="90.46" arrivalSpeed="28.12" duration="106.00" routeLength="1314.99" waitingTime="0.00" waitingCount="0" stopTime="0.00" timeLoss="35.80" rerouteNo="0" devices="tripinfo_89" vType="DEFAULT_VEHTYPE" speedFactor="1.18" vaporized=""/>
    <tripinfo id="92" depart="205.00" departLane="E0_0" departPos="5.10" departSpeed="7.07" departDelay="106.00" arrival="306.00" arrivalLane="E3_0" arrivalPos="90.46" arrivalSpeed="28.16" duration="101.00" routeLength="1314.99" waitingTime="0.00" waitingCount="0" stopTime="0.00" timeLoss="17.06" rerouteNo="0" devices="tripinfo_92" vType="DEFAULT_VEHTYPE" speedFactor="0.98" vaporized=""/>
    <tripinfo id="93" depart="207.00" departLane="E0_0" departPos="5.10" departSpeed="7.95" departDelay="106.00" arrival="311.00" arrivalLane="E3_0" arrivalPos="90.46" arrivalSpeed="27.27" duration="104.00" routeLength="1314.99" waitingTime="0.00" waitingCount="0" stopTime="0.00" timeLoss="16.69" rerouteNo="0" devices="tripinfo_93" vType="DEFAULT_VEHTYPE" speedFactor="0.94" vaporized=""/>
    <tripinfo id="94" depart="209.00" departLane="E0_0" departPos="5.10" departSpeed="9.19" departDelay="108.00" arrival="312.00" arrivalLane="E3_0" arrivalPos="90.46" arrivalSpeed="29.21" duration="103.00" routeLength="1314.99" waitingTime="0.00" waitingCount="0" stopTime="0.00" timeLoss="23.66" rerouteNo="0" devices="tripinfo_94" vType="DEFAULT_VEHTYPE" speedFactor="1.03" vaporized=""/>
    <tripinfo id="96" depart="212.00" departLane="E0_0" departPos="5.10" departSpeed="3.50" departDelay="110.00" arrival="321.00" arrivalLane="E3_0" arrivalPos="90.46" arrivalSpeed="25.30" duration="109.00" routeLength="1314.99" waitingTime="0.00" waitingCount="0" stopTime="0.00" timeLoss="15.90" rerouteNo="0" devices="tripinfo_96" vType="DEFAULT_VEHTYPE" speedFactor="0.89" vaporized=""/>
    <tripinfo id="97" depart="214.00" departLane="E0_0" departPos="5.10" departSpeed="1.63" departDelay="112.00" arrival="322.00" arrivalLane="E3_0" arrivalPos="90.46" arrivalSpeed="27.40" duration="108.00" routeLength="1314.99" waitingTime="0.00" waitingCount="0" stopTime="0.00" timeLoss="28.55" rerouteNo="0" devices="tripinfo_97" vType="DEFAULT_VEHTYPE" speedFactor="1.03" vaporized=""/>
    <tripinfo id="100" depart="222.00" departLane="E0_0" departPos="5.10" departSpeed="3.30" departDelay="117.00" arrival="324.00" arrivalLane="E3_0" arrivalPos="90.46" arrivalSpeed="28.69" duration="102.00" routeLength="1314.99" waitingTime="0.00" waitingCount="0" stopTime="0.00" timeLoss="27.27" rerouteNo="0" devices="tripinfo_100" vType="DEFAULT_VEHTYPE" speedFactor="1.10" vaporized=""/>
    <tripinfo id="21" depart="36.00" departLane="E0_0" departPos="5.10" departSpeed="6.50" departDelay="20.00" arrival="332.00" arrivalLane="E3_0" arrivalPos="90.46" arrivalSpeed="24.58" duration="296.00" routeLength="1317.38" waitingTime="145.00" waitingCount="5" stopTime="0.00" timeLoss="197.62" rerouteNo="0" devices="tripinfo_21" vType="DEFAULT_VEHTYPE" speedFactor="0.87" vaporized=""/>
    <tripinfo id="22" depart="38.00" departLane="E0_0" departPos="5.10" departSpeed="6.38" departDelay="21.00" arrival="334.00" arrivalLane="E3_0" arrivalPos="90.46" arrivalSpeed="24.38" duration="296.00" routeLength="1317.38" waitingTime="140.00" waitingCount="5" stopTime="0.00" timeLoss="213.09" rerouteNo="0" devices="tripinfo_22" vType="DEFAULT_VEHTYPE" speedFactor="1.03" vaporized=""/>
    <tripinfo id="102" depart="228.00" departLane="E0_0" departPos="5.10" departSpeed="6.01" departDelay="121.00" arrival="342.00" arrivalLane="E3_0" arrivalPos="90.46" arrivalSpeed="24.55" duration="114.00" routeLength="1314.99" waitingTime="0.00" waitingCount="0" stopTime="0.00" timeLoss="15.39" rerouteNo="0" devices="tripinfo_102" vType="DEFAULT_VEHTYPE" speedFactor="0.84" vaporized=""/>
    <tripinfo id="104" depart="232.00" departLane="E0_0" departPos="5.10" departSpeed="6.52" departDelay="123.00" arrival="343.00" arrivalLane="E3_0" arrivalPos="90.46" arrivalSpeed="27.24" duration="111.00" routeLength="1314.99" waitingTime="0.00" waitingCount="0" stopTime="0.00" timeLoss="31.60" rerouteNo="0" devices="tripinfo_104" vType="DEFAULT_VEHTYPE" speedFactor="1.04" vaporized=""/>
    <tripinfo id="106" depart="236.00" departLane="E0_0" departPos="5.10" departSpeed="6.99" departDelay="126.00" arrival="345.00" arrivalLane="E3_0" arrivalPos="90.46" arrivalSpeed="27.72" duration="109.00" routeLength="1314.99" waitingTime="0.00" waitingCount="0" stopTime="0.00" timeLoss="22.31" rerouteNo="0" devices="tripinfo_106" vType="DEFAULT_VEHTYPE" speedFactor="0.95" vaporized=""/>
    <tripinfo id="110" depart="243.00" departLane="E0_0" departPos="5.10" departSpeed="4.75" departDelay="130.00" arrival="346.00" arrivalLane="E3_0" arrivalPos="90.46" arrivalSpeed="28.29" duration="103.00" routeLength="1314.99" waitingTime="0.00" waitingCount="0" stopTime="0.00" timeLoss="21.74" rerouteNo="0" devices="tripinfo_110" vType="DEFAULT_VEHTYPE" speedFactor="1.01" vaporized=""/>