<?xml version="1.0" encoding="UTF-8"?>

<!-- generated on 2023-04-29 20:47:56 by Eclipse SUMO sumo Version 1.16.0
<configuration xmlns:xsi="http://www.w3.org/2001/XMLSchema-instance" xsi:noNamespaceSchemaLocation="http://sumo.dlr.de/xsd/sumoConfiguration.xsd">

    <input>
        <net-file value="C:\Users\Local_Man\Desktop\Stolen%20Music\school%20stuff%20for%20college\Semester%2015%20(UH%20Graduate%20School)\COSC%206364%20Nikolaos\SUMO_Project\COSC6364_Project\configurations\maps\4corners_neighborhoods.net.xml"/>
        <route-files value="./configurations/Rounds/4corners_neighborhoods.net.xml-test-3/Microscopic_DUE/011/Trips_File_011.rou.xml"/>
    </input>

    <output>
        <summary-output value="./configurations/Rounds/4corners_neighborhoods.net.xml-test-3/Microscopic_DUE/011/summary.xml"/>
        <tripinfo-output value="./configurations/Rounds/4corners_neighborhoods.net.xml-test-3/Microscopic_DUE/011/trips.trips.xml"/>
        <statistic-output value="./configurations/Rounds/4corners_neighborhoods.net.xml-test-3/Microscopic_DUE/011/stats_output.xml"/>
    </output>

    <time>
        <begin value="0"/>
    </time>

    <report>
        <log value="./configurations/Rounds/4corners_neighborhoods.net.xml-test-3/Microscopic_DUE/011/log.sumo.log"/>
        <no-step-log value="true"/>
    </report>

    <gui_only>
        <quit-on-end value="true"/>
    </gui_only>

</configuration>
-->

<tripinfos xmlns:xsi="http://www.w3.org/2001/XMLSchema-instance" xsi:noNamespaceSchemaLocation="http://sumo.dlr.de/xsd/tripinfo_file.xsd">
    <tripinfo id="29" depart="33.00" departLane="318908683#0_0" departPos="5.10" departSpeed="0.00" departDelay="0.00" arrival="80.00" arrivalLane="260998164#0_0" arrivalPos="257.55" arrivalSpeed="26.31" duration="47.00" routeLength="939.98" waitingTime="0.00" waitingCount="0" stopTime="0.00" timeLoss="7.05" rerouteNo="0" devices="tripinfo_29" vType="DEFAULT_VEHTYPE" speedFactor="0.95" vaporized=""/>
    <tripinfo id="10" depart="11.00" departLane="105681660#12_0" departPos="5.10" departSpeed="0.00" departDelay="3.00" arrival="89.00" arrivalLane="-597602753#1_0" arrivalPos="143.59" arrivalSpeed="20.05" duration="78.00" routeLength="1380.56" waitingTime="0.00" waitingCount="0" stopTime="0.00" timeLoss="10.32" rerouteNo="0" devices="tripinfo_10" vType="DEFAULT_VEHTYPE" speedFactor="0.94" vaporized=""/>
    <tripinfo id="12" depart="12.00" departLane="597602756#0_0" departPos="5.10" departSpeed="0.00" departDelay="0.00" arrival="94.00" arrivalLane="-597602753#1_0" arrivalPos="143.59" arrivalSpeed="23.88" duration="82.00" routeLength="1638.96" waitingTime="0.00" waitingCount="0" stopTime="0.00" timeLoss="13.48" rerouteNo="0" devices="tripinfo_12" vType="DEFAULT_VEHTYPE" speedFactor="1.09" vaporized=""/>
    <tripinfo id="4" depart="5.00" departLane="105681660#12_0" departPos="5.10" departSpeed="0.00" departDelay="0.00" arrival="98.00" arrivalLane="918280984_0" arrivalPos="38.78" arrivalSpeed="12.91" duration="93.00" routeLength="1405.13" waitingTime="0.00" waitingCount="0" stopTime="0.00" timeLoss="12.62" rerouteNo="0" devices="tripinfo_4" vType="DEFAULT_VEHTYPE" speedFactor="1.01" vaporized=""/>
    <tripinfo id="21" depart="19.00" departLane="422688973_0" departPos="5.10" departSpeed="0.00" departDelay="0.00" arrival="101.00" arrivalLane="-597602753#1_0" arrivalPos="143.59" arrivalSpeed="25.02" duration="82.00" routeLength="1128.03" waitingTime="0.00" waitingCount="0" stopTime="0.00" timeLoss="14.55" rerouteNo="0" devices="tripinfo_21" vType="DEFAULT_VEHTYPE" speedFactor="1.16" vaporized=""/>
    <tripinfo id="9" depart="8.00" departLane="-260998164#3_0" departPos="5.10" departSpeed="0.00" departDelay="1.00" arrival="107.00" arrivalLane="-597602756#0_0" arrivalPos="325.99" arrivalSpeed="18.52" duration="99.00" routeLength="1231.40" waitingTime="0.00" waitingCount="0" stopTime="0.00" timeLoss="16.98" rerouteNo="0" devices="tripinfo_9" vType="DEFAULT_VEHTYPE" speedFactor="0.89" vaporized=""/>
    <tripinfo id="3" depart="2.00" departLane="422685671#2_0" departPos="5.10" departSpeed="0.00" departDelay="0.00" arrival="109.00" arrivalLane="-105681660#20_0" arrivalPos="806.12" arrivalSpeed="19.95" duration="107.00" routeLength="1813.05" waitingTime="0.00" waitingCount="0" stopTime="0.00" timeLoss="21.40" rerouteNo="0" devices="tripinfo_3" vType="DEFAULT_VEHTYPE" speedFactor="0.94" vaporized=""/>
    <tripinfo id="5" depart="5.00" departLane="-260998164#3_0" departPos="5.10" departSpeed="0.00" departDelay="0.00" arrival="109.00" arrivalLane="-318908683#1_0" arrivalPos="71.22" arrivalSpeed="14.20" duration="104.00" routeLength="955.07" waitingTime="53.00" waitingCount="1" stopTime="0.00" timeLoss="68.31" rerouteNo="0" devices="tripinfo_5" vType="DEFAULT_VEHTYPE" speedFactor="1.08" vaporized=""/>
    <tripinfo id="28" depart="31.00" departLane="918280985_0" departPos="5.10" departSpeed="0.00" departDelay="0.00" arrival="113.00" arrivalLane="260998164#0_0" arrivalPos="257.55" arrivalSpeed="24.68" duration="82.00" routeLength="1460.33" waitingTime="2.00" waitingCount="1" stopTime="0.00" timeLoss="20.29" rerouteNo="0" devices="tripinfo_28" vType="DEFAULT_VEHTYPE" speedFactor="0.92" vaporized=""/>
    <tripinfo id="15" depart="13.00" departLane="422685671#2_0" departPos="5.10" departSpeed="0.00" departDelay="0.00" arrival="117.00" arrivalLane="260998164#0_0" arrivalPos="257.55" arrivalSpeed="30.55" duration="104.00" routeLength="1329.43" waitingTime="41.00" waitingCount="1" stopTime="0.00" timeLoss="60.87" rerouteNo="0" devices="tripinfo_15" vType="DEFAULT_VEHTYPE" speedFactor="1.12" vaporized=""/>
    <tripinfo id="38" depart="49.00" departLane="422685671#2_0" departPos="5.10" departSpeed="0.00" departDelay="0.00" arrival="122.00" arrivalLane="260998164#0_0" arrivalPos="257.55" arrivalSpeed="26.94" duration="73.00" routeLength="1329.43" waitingTime="6.00" waitingCount="1" stopTime="0.00" timeLoss="23.62" rerouteNo="0" devices="tripinfo_38" vType="DEFAULT_VEHTYPE" speedFactor="0.97" vaporized=""/>
    <tripinfo id="42" depart="51.00" departLane="422688973_0" departPos="5.10" departSpeed="0.00" departDelay="0.00" arrival="130.00" arrivalLane="-318908683#1_0" arrivalPos="71.22" arrivalSpeed="13.04" duration="79.00" routeLength="684.23" waitingTime="36.00" waitingCount="1" stopTime="0.00" timeLoss="51.34" rerouteNo="0" devices="tripinfo_42" vType="DEFAULT_VEHTYPE" speedFactor="1.03" vaporized=""/>
    <tripinfo id="40" depart="49.00" departLane="597602756#0_0" departPos="5.10" departSpeed="0.00" departDelay="0.00" arrival="133.00" arrivalLane="260998164#0_0" arrivalPos="257.55" arrivalSpeed="30.59" duration="84.00" routeLength="1239.91" waitingTime="0.00" waitingCount="0" stopTime="0.00" timeLoss="17.01" rerouteNo="0" devices="tripinfo_40" vType="DEFAULT_VEHTYPE" speedFactor="1.10" vaporized=""/>
    <tripinfo id="6" depart="5.00" departLane="918280985_0" departPos="5.10" departSpeed="0.00" departDelay="0.00" arrival="139.00" arrivalLane="-597602756#0_0" arrivalPos="325.99" arrivalSpeed="21.99" duration="134.00" routeLength="1890.39" waitingTime="24.00" waitingCount="1" stopTime="0.00" timeLoss="51.34" rerouteNo="0" devices="tripinfo_6" vType="DEFAULT_VEHTYPE" speedFactor="1.03" vaporized=""/>
    <tripinfo id="69" depart="83.00" departLane="918280985_0" departPos="5.10" departSpeed="0.00" departDelay="1.00" arrival="140.00" arrivalLane="-318908683#1_0" arrivalPos="71.22" arrivalSpeed="11.90" duration="57.00" routeLength="674.50" waitingTime="8.00" waitingCount="1" stopTime="0.00" timeLoss="23.80" rerouteNo="0" devices="tripinfo_69" vType="DEFAULT_VEHTYPE" speedFactor="0.91" vaporized=""/>
    <tripinfo id="2" depart="1.00" departLane="422688973_0" departPos="5.10" departSpeed="0.00" departDelay="0.00" arrival="141.00" arrivalLane="-597602756#0_0" arrivalPos="325.99" arrivalSpeed="22.61" duration="140.00" routeLength="1606.33" waitingTime="25.00" waitingCount="3" stopTime="0.00" timeLoss="56.73" rerouteNo="0" devices="tripinfo_2" vType="DEFAULT_VEHTYPE" speedFactor="1.06" vaporized=""/>
    <tripinfo id="22" depart="21.00" departLane="597602753#0_0" departPos="5.10" departSpeed="0.00" departDelay="0.00" arrival="141.00" arrivalLane="422688976#1_1" arrivalPos="294.40" arrivalSpeed="28.04" duration="120.00" routeLength="1788.22" waitingTime="11.00" waitingCount="2" stopTime="0.00" timeLoss="47.05" rerouteNo="0" devices="tripinfo_22" vType="DEFAULT_VEHTYPE" speedFactor="1.02" vaporized=""/>
    <tripinfo id="36" depart="44.00" departLane="318908683#0_0" departPos="5.10" departSpeed="0.00" departDelay="0.00" arrival="141.00" arrivalLane="422688976#1_0" arrivalPos="294.40" arrivalSpeed="26.51" duration="97.00" routeLength="940.85" waitingTime="44.00" waitingCount="1" stopTime="0.00" timeLoss="60.18" rerouteNo="0" devices="tripinfo_36" vType="DEFAULT_VEHTYPE" speedFactor="0.99" vaporized=""/>
    <tripinfo id="66" depart="80.00" departLane="918280985_0" departPos="5.10" departSpeed="0.00" departDelay="0.00" arrival="148.00" arrivalLane="15374898#0-AddedOffRampEdge_0" arrivalPos="100.00" arrivalSpeed="25.19" duration="68.00" routeLength="996.81" waitingTime="9.00" waitingCount="1" stopTime="0.00" timeLoss="26.51" rerouteNo="0" devices="tripinfo_66" vType="DEFAULT_VEHTYPE" speedFactor="0.94" vaporized=""/>
    <tripinfo id="85" depart="105.00" departLane="918280985_0" departPos="5.10" departSpeed="0.00" departDelay="4.00" arrival="148.00" arrivalLane="-318908683#1_0" arrivalPos="71.22" arrivalSpeed="12.24" duration="43.00" routeLength="674.50" waitingTime="0.00" waitingCount="0" stopTime="0.00" timeLoss="11.03" rerouteNo="0" devices="tripinfo_85" vType="DEFAULT_VEHTYPE" speedFactor="0.97" vaporized=""/>
    <tripinfo id="23" depart="22.00" departLane="422685671#2_0" departPos="5.10" departSpeed="0.00" departDelay="0.00" arrival="149.00" arrivalLane="422688976#1_1" arrivalPos="294.40" arrivalSpeed="27.95" duration="127.00" routeLength="1317.05" waitingTime="52.00" waitingCount="1" stopTime="0.00" timeLoss="77.36" rerouteNo="0" devices="tripinfo_23" vType="DEFAULT_VEHTYPE" speedFactor="1.01" vaporized=""/>
    <tripinfo id="17" depart="15.00" departLane="918280985_0" departPos="5.10" departSpeed="0.00" departDelay="0.00" arrival="150.00" arrivalLane="-597602753#1_0" arrivalPos="143.59" arrivalSpeed="20.26" duration="135.00" routeLength="1123.56" waitingTime="32.00" waitingCount="3" stopTime="0.00" timeLoss="62.99" rerouteNo="0" devices="tripinfo_17" vType="DEFAULT_VEHTYPE" speedFactor="0.93" vaporized=""/>
    <tripinfo id="44" depart="54.00" departLane="-260998164#3_0" departPos="5.10" departSpeed="0.00" departDelay="0.00" arrival="151.00" arrivalLane="918280984_0" arrivalPos="38.78" arrivalSpeed="14.19" duration="97.00" routeLength="1465.15" waitingTime="23.00" waitingCount="1" stopTime="0.00" timeLoss="45.19" rerouteNo="0" devices="tripinfo_44" vType="DEFAULT_VEHTYPE" speedFactor="1.09" vaporized=""/>
    <tripinfo id="14" depart="15.00" departLane="597602756#0_0" departPos="5.10" departSpeed="0.00" departDelay="2.00" arrival="153.00" arrivalLane="918280984_0" arrivalPos="38.78" arrivalSpeed="13.65" duration="138.00" routeLength="1883.00" waitingTime="18.00" waitingCount="1" stopTime="0.00" timeLoss="48.72" rerouteNo="0" devices="tripinfo_14" vType="DEFAULT_VEHTYPE" speedFactor="1.05" vaporized=""/>
    <tripinfo id="31" depart="35.00" departLane="422688973_0" departPos="5.10" departSpeed="0.00" departDelay="0.00" arrival="154.00" arrivalLane="-597602753#1_0" arrivalPos="143.59" arrivalSpeed="20.55" duration="119.00" routeLength="1114.81" waitingTime="30.00" waitingCount="1" stopTime="0.00" timeLoss="48.64" rerouteNo="0" devices="tripinfo_31" vType="DEFAULT_VEHTYPE" speedFactor="0.93" vaporized=""/>
    <tripinfo id="47" depart="57.00" departLane="318908683#0_0" departPos="5.10" departSpeed="0.00" departDelay="0.00" arrival="155.00" arrivalLane="260998164#0_0" arrivalPos="257.55" arrivalSpeed="29.25" duration="98.00" routeLength="939.98" waitingTime="51.00" waitingCount="1" stopTime="0.00" timeLoss="63.54" rerouteNo="0" devices="tripinfo_47" vType="DEFAULT_VEHTYPE" speedFactor="1.09" vaporized=""/>
    <tripinfo id="19" depart="19.00" departLane="422685671#2_0" departPos="5.10" departSpeed="0.00" departDelay="2.00" arrival="156.00" arrivalLane="918280984_0" arrivalPos="38.78" arrivalSpeed="12.49" duration="137.00" routeLength="1069.78" waitingTime="65.00" waitingCount="2" stopTime="0.00" timeLoss="90.06" rerouteNo="0" devices="tripinfo_19" vType="DEFAULT_VEHTYPE" speedFactor="0.94" vaporized=""/>
    <tripinfo id="32" depart="37.00" departLane="-260998164#3_0" departPos="5.10" departSpeed="0.00" departDelay="0.00" arrival="156.00" arrivalLane="-597602753#1_0" arrivalPos="143.59" arrivalSpeed="25.37" duration="119.00" routeLength="1979.71" waitingTime="17.00" waitingCount="2" stopTime="0.00" timeLoss="49.13" rerouteNo="0" devices="tripinfo_32" vType="DEFAULT_VEHTYPE" speedFactor="1.18" vaporized=""/>
    <tripinfo id="7" depart="8.00" departLane="918280985_0" departPos="5.10" departSpeed="0.00" departDelay="1.00" arrival="157.00" arrivalLane="-105681660#20_0" arrivalPos="806.12" arrivalSpeed="17.87" duration="149.00" routeLength="1360.98" waitingTime="38.00" waitingCount="2" stopTime="0.00" timeLoss="57.26" rerouteNo="0" devices="tripinfo_7" vType="DEFAULT_VEHTYPE" speedFactor="0.83" vaporized=""/>
    <tripinfo id="20" depart="18.00" departLane="597602753#0_0" departPos="5.10" departSpeed="0.00" departDelay="0.00" arrival="158.00" arrivalLane="15374898#0-AddedOffRampEdge_0" arrivalPos="100.00" arrivalSpeed="25.67" duration="140.00" routeLength="1964.42" waitingTime="2.00" waitingCount="1" stopTime="0.00" timeLoss="28.23" rerouteNo="0" devices="tripinfo_20" vType="DEFAULT_VEHTYPE" speedFactor="0.94" vaporized=""/>
    <tripinfo id="26" depart="30.00" departLane="422685671#2_0" departPos="5.10" departSpeed="0.00" departDelay="0.00" arrival="158.00" arrivalLane="918280984_0" arrivalPos="38.78" arrivalSpeed="10.61" duration="128.00" routeLength="1069.78" waitingTime="50.00" waitingCount="2" stopTime="0.00" timeLoss="75.08" rerouteNo="0" devices="tripinfo_26" vType="DEFAULT_VEHTYPE" speedFactor="0.83" vaporized=""/>
    <tripinfo id="24" depart="26.00" departLane="422688973_0" departPos="5.10" departSpeed="0.00" departDelay="0.00" arrival="161.00" arrivalLane="-105681660#20_0" arrivalPos="806.12" arrivalSpeed="21.03" duration="135.00" routeLength="1352.23" waitingTime="38.00" waitingCount="2" stopTime="0.00" timeLoss="58.22" rerouteNo="0" devices="tripinfo_24" vType="DEFAULT_VEHTYPE" speedFactor="0.97" vaporized=""/>
    <tripinfo id="8" depart="8.00" departLane="105681660#12_0" departPos="5.10" departSpeed="0.00" departDelay="1.00" arrival="167.00" arrivalLane="15374898#0-AddedOffRampEdge_0" arrivalPos="100.00" arrivalSpeed="28.17" duration="159.00" routeLength="2308.55" waitingTime="21.00" waitingCount="1" stopTime="0.00" timeLoss="51.53" rerouteNo="0" devices="tripinfo_8" vType="DEFAULT_VEHTYPE" speedFactor="1.05" vaporized=""/>
    <tripinfo id="77" depart="92.00" departLane="318908683#0_0" departPos="5.10" departSpeed="0.00" departDelay="0.00" arrival="167.00" arrivalLane="260998164#0_0" arrivalPos="257.55" arrivalSpeed="26.63" duration="75.00" routeLength="939.98" waitingTime="22.00" waitingCount="1" stopTime="0.00" timeLoss="36.35" rerouteNo="0" devices="tripinfo_77" vType="DEFAULT_VEHTYPE" speedFactor="0.98" vaporized=""/>
    <tripinfo id="81" depart="96.00" departLane="318908683#0_0" departPos="5.10" departSpeed="0.00" departDelay="0.00" arrival="168.00" arrivalLane="260998164#0_0" arrivalPos="257.55" arrivalSpeed="27.96" duration="72.00" routeLength="939.98" waitingTime="19.00" waitingCount="1" stopTime="0.00" timeLoss="37.35" rerouteNo="0" devices="tripinfo_81" vType="DEFAULT_VEHTYPE" speedFactor="1.09" vaporized=""/>
    <tripinfo id="90" depart="109.00" departLane="318908683#0_0" departPos="5.10" departSpeed="0.00" departDelay="0.00" arrival="171.00" arrivalLane="260998164#0_0" arrivalPos="257.55" arrivalSpeed="26.73" duration="62.00" routeLength="939.98" waitingTime="10.00" waitingCount="1" stopTime="0.00" timeLoss="24.74" rerouteNo="0" devices="tripinfo_90" vType="DEFAULT_VEHTYPE" speedFactor="1.01" vaporized=""/>
    <tripinfo id="13" depart="17.00" departLane="105681660#12_0" departPos="5.10" departSpeed="0.00" departDelay="5.00" arrival="173.00" arrivalLane="918280984_0" arrivalPos="38.78" arrivalSpeed="13.82" duration="156.00" routeLength="1405.13" waitingTime="41.00" waitingCount="2" stopTime="0.00" timeLoss="76.31" rerouteNo="0" devices="tripinfo_13" vType="DEFAULT_VEHTYPE" speedFactor="1.03" vaporized=""/>
    <tripinfo id="61" depart="72.00" departLane="-260998164#3_0" departPos="5.10" departSpeed="0.00" departDelay="0.00" arrival="173.00" arrivalLane="-597602756#0_0" arrivalPos="325.99" arrivalSpeed="20.77" duration="101.00" routeLength="1420.33" waitingTime="0.00" waitingCount="0" stopTime="0.00" timeLoss="17.79" rerouteNo="0" devices="tripinfo_61" vType="DEFAULT_VEHTYPE" speedFactor="0.97" vaporized=""/>
    <tripinfo id="99" depart="114.00" departLane="422688973_0" departPos="5.10" departSpeed="0.00" departDelay="0.00" arrival="175.00" arrivalLane="15374898#0-AddedOffRampEdge_0" arrivalPos="100.00" arrivalSpeed="24.96" duration="61.00" routeLength="1006.54" waitingTime="0.00" waitingCount="0" stopTime="0.00" timeLoss="19.58" rerouteNo="0" devices="tripinfo_99" vType="DEFAULT_VEHTYPE" speedFactor="0.91" vaporized=""/>
    <tripinfo id="48" depart="60.00" departLane="597602753#0_0" departPos="5.10" departSpeed="0.00" departDelay="0.00" arrival="176.00" arrivalLane="918280984_0" arrivalPos="38.78" arrivalSpeed="13.51" duration="116.00" routeLength="1061.00" waitingTime="25.00" waitingCount="1" stopTime="0.00" timeLoss="43.02" rerouteNo="0" devices="tripinfo_48" vType="DEFAULT_VEHTYPE" speedFactor="1.00" vaporized=""/>
    <tripinfo id="18" depart="16.00" departLane="422685671#2_0" departPos="5.10" departSpeed="0.00" departDelay="0.00" arrival="187.00" arrivalLane="-105681660#20_0" arrivalPos="806.12" arrivalSpeed="19.22" duration="171.00" routeLength="1813.05" waitingTime="55.00" waitingCount="1" stopTime="0.00" timeLoss="79.41" rerouteNo="0" devices="tripinfo_18" vType="DEFAULT_VEHTYPE" speedFactor="0.88" vaporized=""/>
    <tripinfo id="39" depart="49.00" departLane="422688973_0" departPos="5.10" departSpeed="0.00" departDelay="0.00" arrival="189.00" arrivalLane="-105681660#20_0" arrivalPos="806.12" arrivalSpeed="22.68" duration="140.00" routeLength="1352.23" waitingTime="39.00" waitingCount="2" stopTime="0.00" timeLoss="76.12" rerouteNo="0" devices="tripinfo_39" vType="DEFAULT_VEHTYPE" speedFactor="1.18" vaporized=""/>
    <tripinfo id="57" depart="68.00" departLane="918280985_0" departPos="5.10" departSpeed="0.00" departDelay="1.00" arrival="193.00" arrivalLane="260998164#0_0" arrivalPos="257.55" arrivalSpeed="27.51" duration="125.00" routeLength="1460.33" waitingTime="44.00" waitingCount="2" stopTime="0.00" timeLoss="67.75" rerouteNo="0" devices="tripinfo_57" vType="DEFAULT_VEHTYPE" speedFactor="1.00" vaporized=""/>
    <tripinfo id="16" depart="14.00" departLane="597602753#0_0" departPos="5.10" departSpeed="0.00" departDelay="0.00" arrival="196.00" arrivalLane="260998164#0_0" arrivalPos="257.55" arrivalSpeed="26.50" duration="182.00" routeLength="2427.94" waitingTime="25.00" waitingCount="2" stopTime="0.00" timeLoss="58.86" rerouteNo="0" devices="tripinfo_16" vType="DEFAULT_VEHTYPE" speedFactor="0.99" vaporized=""/>
    <tripinfo id="58" depart="71.00" departLane="918280985_0" departPos="5.10" departSpeed="0.00" departDelay="3.00" arrival="196.00" arrivalLane="-105681660#20_0" arrivalPos="806.12" arrivalSpeed="18.87" duration="125.00" routeLength="1360.98" waitingTime="19.00" waitingCount="2" stopTime="0.00" timeLoss="40.16" rerouteNo="0" devices="tripinfo_58" vType="DEFAULT_VEHTYPE" speedFactor="0.90" vaporized=""/>
    <tripinfo id="67" depart="81.00" departLane="-260998164#3_0" departPos="5.10" departSpeed="0.00" departDelay="0.00" arrival="196.00" arrivalLane="15374898#0-AddedOffRampEdge_1" arrivalPos="100.00" arrivalSpeed="23.49" duration="115.00" routeLength="1332.80" waitingTime="44.00" waitingCount="1" stopTime="0.00" timeLoss="60.28" rerouteNo="0" devices="tripinfo_67" vType="DEFAULT_VEHTYPE" speedFactor="0.88" vaporized=""/>
    <tripinfo id="34" depart="40.00" departLane="105681660#12_0" departPos="5.10" departSpeed="0.00" departDelay="0.00" arrival="197.00" arrivalLane="918280984_0" arrivalPos="38.78" arrivalSpeed="13.12" duration="157.00" routeLength="1405.13" waitingTime="33.00" waitingCount="2" stopTime="0.00" timeLoss="76.16" rerouteNo="0" devices="tripinfo_34" vType="DEFAULT_VEHTYPE" speedFactor="1.01" vaporized=""/>
    <tripinfo id="55" depart="66.00" departLane="422688973_0" departPos="5.10" departSpeed="0.00" departDelay="0.00" arrival="197.00" arrivalLane="-597602753#1_0" arrivalPos="143.59" arrivalSpeed="24.03" duration="131.00" routeLength="1128.03" waitingTime="27.00" waitingCount="2" stopTime="0.00" timeLoss="59.85" rerouteNo="0" devices="tripinfo_55" vType="DEFAULT_VEHTYPE" speedFactor="1.10" vaporized=""/>
    <tripinfo id="79" depart="102.00" departLane="918280985_0" departPos="5.10" departSpeed="0.00" departDelay="7.00" arrival="197.00" arrivalLane="260998164#0_0" arrivalPos="257.55" arrivalSpeed="26.40" duration="95.00" routeLength="1460.33" waitingTime="17.00" waitingCount="1" stopTime="0.00" timeLoss="37.33" rerouteNo="0" devices="tripinfo_79" vType="DEFAULT_VEHTYPE" speedFactor="0.98" vaporized=""/>
    <tripinfo id="53" depart="64.00" departLane="597602756#0_0" departPos="5.10" departSpeed="0.00" departDelay="0.00" arrival="198.00" arrivalLane="15374898#0-AddedOffRampEdge_1" arrivalPos="100.00" arrivalSpeed="28.71" duration="134.00" routeLength="2043.36" waitingTime="13.00" waitingCount="1" stopTime="0.00" timeLoss="46.55" rerouteNo="0" devices="tripinfo_53" vType="DEFAULT_VEHTYPE" speedFactor="1.17" vaporized=""/>
    <tripinfo id="35" depart="43.00" departLane="105681660#12_0" departPos="5.10" departSpeed="0.00" departDelay="2.00" arrival="199.00" arrivalLane="-318908683#1_0" arrivalPos="71.22" arrivalSpeed="15.25" duration="156.00" routeLength="1835.34" waitingTime="36.00" waitingCount="1" stopTime="0.00" timeLoss="73.05" rerouteNo="0" devices="tripinfo_35" vType="DEFAULT_VEHTYPE" speedFactor="1.17" vaporized=""/>
    <tripinfo id="96" depart="122.00" departLane="-260998164#3_0" departPos="5.10" departSpeed="0.00" departDelay="10.00" arrival="199.00" arrivalLane="15374898#0-AddedOffRampEdge_1" arrivalPos="100.00" arrivalSpeed="28.74" duration="77.00" routeLength="1332.80" waitingTime="7.00" waitingCount="1" stopTime="0.00" timeLoss="32.48" rerouteNo="0" devices="tripinfo_96" vType="DEFAULT_VEHTYPE" speedFactor="1.09" vaporized=""/>
    <tripinfo id="95" depart="117.00" departLane="-260998164#3_0" departPos="5.10" departSpeed="0.00" departDelay="6.00" arrival="200.00" arrivalLane="15374898#0-AddedOffRampEdge_0" arrivalPos="100.00" arrivalSpeed="25.09" duration="83.00" routeLength="1332.80" waitingTime="11.00" waitingCount="1" stopTime="0.00" timeLoss="30.16" rerouteNo="0" devices="tripinfo_95" vType="DEFAULT_VEHTYPE" speedFactor="0.92" vaporized=""/>
    <tripinfo id="65" depart="80.00" departLane="318908683#0_0" departPos="5.10" departSpeed="0.00" departDelay="0.00" arrival="201.00" arrivalLane="-597602753#1_0" arrivalPos="143.59" arrivalSpeed="21.56" duration="121.00" routeLength="1208.14" waitingTime="31.00" waitingCount="1" stopTime="0.00" timeLoss="63.50" rerouteNo="0" devices="tripinfo_65" vType="DEFAULT_VEHTYPE" speedFactor="0.99" vaporized=""/>
    <tripinfo id="60" depart="70.00" departLane="597602756#0_0" departPos="5.10" departSpeed="0.00" departDelay="0.00" arrival="202.00" arrivalLane="-318908683#1_0" arrivalPos="71.22" arrivalSpeed="13.40" duration="132.00" routeLength="1382.88" waitingTime="29.00" waitingCount="2" stopTime="0.00" timeLoss="57.99" rerouteNo="0" devices="tripinfo_60" vType="DEFAULT_VEHTYPE" speedFactor="1.02" vaporized=""/>
    <tripinfo id="68" depart="81.00" departLane="105681660#12_0" departPos="5.10" departSpeed="0.00" departDelay="0.00" arrival="202.00" arrivalLane="918280984_0" arrivalPos="38.78" arrivalSpeed="11.54" duration="121.00" routeLength="1405.13" waitingTime="15.00" waitingCount="1" stopTime="0.00" timeLoss="31.44" rerouteNo="0" devices="tripinfo_68" vType="DEFAULT_VEHTYPE" speedFactor="0.91" vaporized=""/>
    <tripinfo id="30" depart="33.00" departLane="105681660#12_0" departPos="5.10" departSpeed="0.00" departDelay="0.00" arrival="203.00" arrivalLane="422688976#1_0" arrivalPos="294.40" arrivalSpeed="31.36" duration="170.00" routeLength="1630.66" waitingTime="37.00" waitingCount="3" stopTime="0.00" timeLoss="92.35" rerouteNo="0" devices="tripinfo_30" vType="DEFAULT_VEHTYPE" speedFactor="1.13" vaporized=""/>
    <tripinfo id="45" depart="56.00" departLane="105681660#12_0" departPos="5.10" departSpeed="0.00" departDelay="0.00" arrival="205.00" arrivalLane="260998164#0_0" arrivalPos="257.55" arrivalSpeed="27.64" duration="149.00" routeLength="2169.41" waitingTime="15.00" waitingCount="3" stopTime="0.00" timeLoss="47.34" rerouteNo="0" devices="tripinfo_45" vType="DEFAULT_VEHTYPE" speedFactor="1.04" vaporized=""/>
    <tripinfo id="98" depart="125.00" departLane="-260998164#3_0" departPos="5.10" departSpeed="0.00" departDelay="11.00" arrival="205.00" arrivalLane="-318908683#1_0" arrivalPos="71.22" arrivalSpeed="13.07" duration="80.00" routeLength="955.07" waitingTime="23.00" waitingCount="1" stopTime="0.00" timeLoss="40.93" rerouteNo="0" devices="tripinfo_98" vType="DEFAULT_VEHTYPE" speedFactor="1.01" vaporized=""/>
    <tripinfo id="100" depart="114.00" departLane="318908683#0_0" departPos="5.10" departSpeed="0.00" departDelay="0.00" arrival="206.00" arrivalLane="-597602756#0_0" arrivalPos="325.99" arrivalSpeed="23.83" duration="92.00" routeLength="1401.85" waitingTime="8.00" waitingCount="1" stopTime="0.00" timeLoss="33.07" rerouteNo="0" devices="tripinfo_100" vType="DEFAULT_VEHTYPE" speedFactor="1.12" vaporized=""/>
    <tripinfo id="125" depart="145.00" departLane="-260998164#3_0" departPos="5.10" departSpeed="0.00" departDelay="0.00" arrival="206.00" arrivalLane="-318908683#1_0" arrivalPos="71.22" arrivalSpeed="14.21" duration="61.00" routeLength="955.07" waitingTime="6.00" waitingCount="1" stopTime="0.00" timeLoss="23.02" rerouteNo="0" devices="tripinfo_125" vType="DEFAULT_VEHTYPE" speedFactor="1.02" vaporized=""/>
    <tripinfo id="59" depart="69.00" departLane="105681660#12_0" departPos="5.10" departSpeed="0.00" departDelay="0.00" arrival="207.00" arrivalLane="422688976#1_0" arrivalPos="294.40" arrivalSpeed="31.20" duration="138.00" routeLength="1630.66" waitingTime="14.00" waitingCount="2" stopTime="0.00" timeLoss="61.29" rerouteNo="0" devices="tripinfo_59" vType="DEFAULT_VEHTYPE" speedFactor="1.14" vaporized=""/>
    <tripinfo id="52" depart="64.00" departLane="422685671#2_0" departPos="5.10" departSpeed="0.00" departDelay="0.00" arrival="211.00" arrivalLane="-105681660#20_0" arrivalPos="806.12" arrivalSpeed="18.04" duration="147.00" routeLength="1813.05" waitingTime="22.00" waitingCount="2" stopTime="0.00" timeLoss="52.37" rerouteNo="0" devices="tripinfo_52" vType="DEFAULT_VEHTYPE" speedFactor="0.85" vaporized=""/>
    <tripinfo id="62" depart="76.00" departLane="105681660#12_0" departPos="5.10" departSpeed="0.00" departDelay="0.00" arrival="211.00" arrivalLane="260998164#0_0" arrivalPos="257.55" arrivalSpeed="29.79" duration="135.00" routeLength="2169.41" waitingTime="4.00" waitingCount="2" stopTime="0.00" timeLoss="36.90" rerouteNo="0" devices="tripinfo_62" vType="DEFAULT_VEHTYPE" speedFactor="1.08" vaporized=""/>
    <tripinfo id="110" depart="129.00" departLane="318908683#0_0" departPos="5.10" departSpeed="0.00" departDelay="3.00" arrival="211.00" arrivalLane="-597602756#0_0" arrivalPos="325.99" arrivalSpeed="23.21" duration="82.00" routeLength="1401.85" waitingTime="0.00" waitingCount="0" stopTime="0.00" timeLoss="19.40" rerouteNo="0" devices="tripinfo_110" vType="DEFAULT_VEHTYPE" speedFactor="1.06" vaporized=""/>
    <tripinfo id="119" depart="138.00" departLane="918280985_0" departPos="5.10" departSpeed="0.00" departDelay="0.00" arrival="211.00" arrivalLane="15374898#0-AddedOffRampEdge_0" arrivalPos="100.00" arrivalSpeed="27.49" duration="73.00" routeLength="996.81" waitingTime="16.00" waitingCount="1" stopTime="0.00" timeLoss="34.04" rerouteNo="0" devices="tripinfo_119" vType="DEFAULT_VEHTYPE" speedFactor="1.00" vaporized=""/>
    <tripinfo id="50" depart="63.00" departLane="318908683#0_0" departPos="5.10" departSpeed="0.00" departDelay="0.00" arrival="213.00" arrivalLane="-105681660#20_0" arrivalPos="806.12" arrivalSpeed="19.19" duration="150.00" routeLength="1436.85" waitingTime="47.00" waitingCount="2" stopTime="0.00" timeLoss="72.70" rerouteNo="0" devices="tripinfo_50" vType="DEFAULT_VEHTYPE" speedFactor="0.88" vaporized=""/>
    <tripinfo id="92" depart="112.00" departLane="105681660#12_0" departPos="5.10" departSpeed="0.00" departDelay="3.00" arrival="213.00" arrivalLane="-597602753#1_0" arrivalPos="143.59" arrivalSpeed="21.53" duration="101.00" routeLength="1380.56" waitingTime="17.00" waitingCount="1" stopTime="0.00" timeLoss="38.64" rerouteNo="0" devices="tripinfo_92" vType="DEFAULT_VEHTYPE" speedFactor="1.02" vaporized=""/>
    <tripinfo id="64" depart="77.00" departLane="318908683#0_0" departPos="5.10" departSpeed="0.00" departDelay="0.00" arrival="215.00" arrivalLane="-105681660#20_0" arrivalPos="806.12" arrivalSpeed="21.32" duration="138.00" routeLength="1436.85" waitingTime="35.00" waitingCount="2" stopTime="0.00" timeLoss="70.09" rerouteNo="0" devices="tripinfo_64" vType="DEFAULT_VEHTYPE" speedFactor="1.02" vaporized=""/>