<?xml version="1.0" encoding="UTF-8"?>

<!-- generated on 2023-04-29 14:33:01 by Eclipse SUMO sumo Version 1.16.0
<configuration xmlns:xsi="http://www.w3.org/2001/XMLSchema-instance" xsi:noNamespaceSchemaLocation="http://sumo.dlr.de/xsd/sumoConfiguration.xsd">

    <input>
        <net-file value="C:\Users\Local_Man\Desktop\Stolen%20Music\school%20stuff%20for%20college\Semester%2015%20(UH%20Graduate%20School)\COSC%206364%20Nikolaos\SUMO_Project\COSC6364_Project\configurations\maps\4corners_neighborhoods.net.xml"/>
        <route-files value="./configurations/Rounds/4corners_neighborhoods.net.xml-test-0/Macroscopic_DUE/001/Trips_File_001.rou.xml"/>
    </input>

    <output>
        <summary-output value="./configurations/Rounds/4corners_neighborhoods.net.xml-test-0/Macroscopic_DUE/001/summary.xml"/>
        <tripinfo-output value="./configurations/Rounds/4corners_neighborhoods.net.xml-test-0/Macroscopic_DUE/001/trips.trips.xml"/>
        <statistic-output value="./configurations/Rounds/4corners_neighborhoods.net.xml-test-0/Macroscopic_DUE/001/stats_output.xml"/>
    </output>

    <time>
        <begin value="0"/>
    </time>

    <report>
        <log value="./configurations/Rounds/4corners_neighborhoods.net.xml-test-0/Macroscopic_DUE/001/log.sumo.log"/>
        <no-step-log value="true"/>
    </report>

    <gui_only>
        <quit-on-end value="true"/>
    </gui_only>

</configuration>
-->

<tripinfos xmlns:xsi="http://www.w3.org/2001/XMLSchema-instance" xsi:noNamespaceSchemaLocation="http://sumo.dlr.de/xsd/tripinfo_file.xsd">
    <tripinfo id="10" depart="12.00" departLane="422688973_0" departPos="5.10" departSpeed="25.64" departDelay="0.00" arrival="47.00" arrivalLane="-318908683#1_0" arrivalPos="71.22" arrivalSpeed="11.98" duration="35.00" routeLength="684.23" waitingTime="0.00" waitingCount="0" stopTime="0.00" timeLoss="4.34" rerouteNo="0" devices="tripinfo_10" vType="DEFAULT_VEHTYPE" speedFactor="0.92" vaporized=""/>
    <tripinfo id="24" depart="19.00" departLane="318908683#0_0" departPos="5.10" departSpeed="12.42" departDelay="0.00" arrival="80.00" arrivalLane="260998164#0_0" arrivalPos="257.55" arrivalSpeed="23.72" duration="61.00" routeLength="939.98" waitingTime="9.00" waitingCount="1" stopTime="0.00" timeLoss="18.77" rerouteNo="0" devices="tripinfo_24" vType="DEFAULT_VEHTYPE" speedFactor="0.89" vaporized=""/>
    <tripinfo id="32" depart="26.00" departLane="318908683#0_0" departPos="5.10" departSpeed="15.31" departDelay="0.00" arrival="80.00" arrivalLane="918280984_0" arrivalPos="38.78" arrivalSpeed="14.54" duration="54.00" routeLength="693.58" waitingTime="7.00" waitingCount="2" stopTime="0.00" timeLoss="25.80" rerouteNo="0" devices="tripinfo_32" vType="DEFAULT_VEHTYPE" speedFactor="1.10" vaporized=""/>
    <tripinfo id="39" depart="34.00" departLane="318908683#0_0" departPos="5.10" departSpeed="9.46" departDelay="1.00" arrival="82.00" arrivalLane="918280984_0" arrivalPos="38.78" arrivalSpeed="14.57" duration="48.00" routeLength="693.58" waitingTime="1.00" waitingCount="1" stopTime="0.00" timeLoss="18.44" rerouteNo="0" devices="tripinfo_39" vType="DEFAULT_VEHTYPE" speedFactor="1.06" vaporized=""/>
    <tripinfo id="43" depart="39.00" departLane="318908683#0_0" departPos="5.10" departSpeed="13.93" departDelay="0.00" arrival="85.00" arrivalLane="260998164#0_0" arrivalPos="257.55" arrivalSpeed="27.50" duration="46.00" routeLength="939.98" waitingTime="0.00" waitingCount="0" stopTime="0.00" timeLoss="8.63" rerouteNo="0" devices="tripinfo_43" vType="DEFAULT_VEHTYPE" speedFactor="1.00" vaporized=""/>
    <tripinfo id="5" depart="7.00" departLane="597602756#0_0" departPos="5.10" departSpeed="23.24" departDelay="0.00" arrival="87.00" arrivalLane="-597602753#1_0" arrivalPos="143.59" arrivalSpeed="22.52" duration="80.00" routeLength="1638.96" waitingTime="0.00" waitingCount="0" stopTime="0.00" timeLoss="7.81" rerouteNo="0" devices="tripinfo_5" vType="DEFAULT_VEHTYPE" speedFactor="1.05" vaporized=""/>
    <tripinfo id="7" depart="10.00" departLane="918280985_0" departPos="5.10" departSpeed="10.05" departDelay="1.00" arrival="88.00" arrivalLane="15374898#0-AddedOffRampEdge_0" arrivalPos="100.00" arrivalSpeed="27.15" duration="78.00" routeLength="996.81" waitingTime="22.00" waitingCount="1" stopTime="0.00" timeLoss="39.42" rerouteNo="0" devices="tripinfo_7" vType="DEFAULT_VEHTYPE" speedFactor="1.02" vaporized=""/>
    <tripinfo id="9" depart="12.00" departLane="422685671#2_0" departPos="5.10" departSpeed="30.30" departDelay="0.00" arrival="88.00" arrivalLane="-597602753#1_0" arrivalPos="143.59" arrivalSpeed="23.53" duration="76.00" routeLength="1584.34" waitingTime="0.00" waitingCount="0" stopTime="0.00" timeLoss="13.24" rerouteNo="0" devices="tripinfo_9" vType="DEFAULT_VEHTYPE" speedFactor="1.09" vaporized=""/>
    <tripinfo id="3" depart="4.00" departLane="422685671#2_1" departPos="5.10" departSpeed="30.08" departDelay="0.00" arrival="92.00" arrivalLane="-597602756#0_0" arrivalPos="325.99" arrivalSpeed="23.82" duration="88.00" routeLength="1778.05" waitingTime="0.00" waitingCount="0" stopTime="0.00" timeLoss="14.82" rerouteNo="0" devices="tripinfo_3" vType="DEFAULT_VEHTYPE" speedFactor="1.08" vaporized=""/>
    <tripinfo id="16" depart="16.00" departLane="422688973_0" departPos="5.10" departSpeed="15.75" departDelay="0.00" arrival="98.00" arrivalLane="15374898#0-AddedOffRampEdge_0" arrivalPos="100.00" arrivalSpeed="29.65" duration="82.00" routeLength="1006.54" waitingTime="32.00" waitingCount="1" stopTime="0.00" timeLoss="47.24" rerouteNo="0" devices="tripinfo_16" vType="DEFAULT_VEHTYPE" speedFactor="1.08" vaporized=""/>
    <tripinfo id="46" depart="46.00" departLane="-260998164#3_0" departPos="5.10" departSpeed="26.72" departDelay="0.00" arrival="101.00" arrivalLane="15374898#0-AddedOffRampEdge_1" arrivalPos="100.00" arrivalSpeed="26.60" duration="55.00" routeLength="1332.80" waitingTime="0.00" waitingCount="0" stopTime="0.00" timeLoss="4.90" rerouteNo="0" devices="tripinfo_46" vType="DEFAULT_VEHTYPE" speedFactor="0.96" vaporized=""/>
    <tripinfo id="18" depart="18.00" departLane="597602756#0_0" departPos="5.10" departSpeed="17.56" departDelay="1.00" arrival="103.00" arrivalLane="260998164#0_0" arrivalPos="257.55" arrivalSpeed="27.91" duration="85.00" routeLength="1239.91" waitingTime="0.00" waitingCount="0" stopTime="0.00" timeLoss="11.91" rerouteNo="0" devices="tripinfo_18" vType="DEFAULT_VEHTYPE" speedFactor="1.01" vaporized=""/>
    <tripinfo id="33" depart="27.00" departLane="-260998164#3_0" departPos="5.10" departSpeed="28.62" departDelay="0.00" arrival="104.00" arrivalLane="-318908683#1_0" arrivalPos="71.22" arrivalSpeed="13.74" duration="77.00" routeLength="955.07" waitingTime="32.00" waitingCount="1" stopTime="0.00" timeLoss="39.74" rerouteNo="0" devices="tripinfo_33" vType="DEFAULT_VEHTYPE" speedFactor="1.03" vaporized=""/>
    <tripinfo id="28" depart="23.00" departLane="422688973_2" departPos="5.10" departSpeed="0.24" departDelay="0.00" arrival="107.00" arrivalLane="15374898#0-AddedOffRampEdge_0" arrivalPos="100.00" arrivalSpeed="27.03" duration="84.00" routeLength="1006.54" waitingTime="23.00" waitingCount="1" stopTime="0.00" timeLoss="46.52" rerouteNo="0" devices="tripinfo_28" vType="DEFAULT_VEHTYPE" speedFactor="0.99" vaporized=""/>
    <tripinfo id="38" depart="33.00" departLane="-260998164#3_0" departPos="5.10" departSpeed="23.21" departDelay="0.00" arrival="107.00" arrivalLane="-318908683#1_0" arrivalPos="71.22" arrivalSpeed="13.48" duration="74.00" routeLength="955.07" waitingTime="20.00" waitingCount="1" stopTime="0.00" timeLoss="35.61" rerouteNo="0" devices="tripinfo_38" vType="DEFAULT_VEHTYPE" speedFactor="1.02" vaporized=""/>
    <tripinfo id="59" depart="63.00" departLane="422688973_0" departPos="5.10" departSpeed="28.68" departDelay="0.00" arrival="108.00" arrivalLane="15374898#0-AddedOffRampEdge_0" arrivalPos="100.00" arrivalSpeed="28.56" duration="45.00" routeLength="1006.54" waitingTime="0.00" waitingCount="0" stopTime="0.00" timeLoss="9.17" rerouteNo="0" devices="tripinfo_59" vType="DEFAULT_VEHTYPE" speedFactor="1.03" vaporized=""/>
    <tripinfo id="34" depart="29.00" departLane="597602756#0_0" departPos="5.10" departSpeed="23.68" departDelay="0.00" arrival="113.00" arrivalLane="260998164#0_0" arrivalPos="257.55" arrivalSpeed="29.42" duration="84.00" routeLength="1239.91" waitingTime="1.00" waitingCount="1" stopTime="0.00" timeLoss="15.47" rerouteNo="0" devices="tripinfo_34" vType="DEFAULT_VEHTYPE" speedFactor="1.07" vaporized=""/>
    <tripinfo id="19" depart="17.00" departLane="597602756#0_0" departPos="5.10" departSpeed="19.77" departDelay="0.00" arrival="114.00" arrivalLane="-318908683#1_0" arrivalPos="71.22" arrivalSpeed="12.27" duration="97.00" routeLength="1382.88" waitingTime="0.00" waitingCount="0" stopTime="0.00" timeLoss="12.15" rerouteNo="0" devices="tripinfo_19" vType="DEFAULT_VEHTYPE" speedFactor="0.89" vaporized=""/>
    <tripinfo id="6" depart="9.00" departLane="422685671#2_1" departPos="5.10" departSpeed="29.94" departDelay="0.00" arrival="115.00" arrivalLane="260998164#0_0" arrivalPos="257.55" arrivalSpeed="29.73" duration="106.00" routeLength="1329.43" waitingTime="48.00" waitingCount="1" stopTime="0.00" timeLoss="60.69" rerouteNo="0" devices="tripinfo_6" vType="DEFAULT_VEHTYPE" speedFactor="1.08" vaporized=""/>
    <tripinfo id="2" depart="3.00" departLane="422685671#2_0" departPos="5.10" departSpeed="27.09" departDelay="0.00" arrival="117.00" arrivalLane="260998164#0_0" arrivalPos="257.55" arrivalSpeed="26.53" duration="114.00" routeLength="1329.43" waitingTime="52.00" waitingCount="1" stopTime="0.00" timeLoss="64.92" rerouteNo="0" devices="tripinfo_2" vType="DEFAULT_VEHTYPE" speedFactor="0.98" vaporized=""/>
    <tripinfo id="20" depart="17.00" departLane="422685671#2_0" departPos="5.10" departSpeed="28.06" departDelay="0.00" arrival="119.00" arrivalLane="260998164#0_0" arrivalPos="257.55" arrivalSpeed="28.04" duration="102.00" routeLength="1329.43" waitingTime="39.00" waitingCount="1" stopTime="0.00" timeLoss="54.04" rerouteNo="0" devices="tripinfo_20" vType="DEFAULT_VEHTYPE" speedFactor="1.01" vaporized=""/>
    <tripinfo id="17" depart="17.00" departLane="597602753#0_0" departPos="5.10" departSpeed="22.86" departDelay="0.00" arrival="120.00" arrivalLane="-597602756#0_0" arrivalPos="325.99" arrivalSpeed="21.71" duration="103.00" routeLength="1646.04" waitingTime="7.00" waitingCount="1" stopTime="0.00" timeLoss="29.38" rerouteNo="0" devices="tripinfo_17" vType="DEFAULT_VEHTYPE" speedFactor="1.03" vaporized=""/>
    <tripinfo id="67" depart="69.00" departLane="422685671#2_0" departPos="5.10" departSpeed="27.98" departDelay="0.00" arrival="120.00" arrivalLane="260998164#0_0" arrivalPos="257.55" arrivalSpeed="27.90" duration="51.00" routeLength="1329.43" waitingTime="0.00" waitingCount="0" stopTime="0.00" timeLoss="3.32" rerouteNo="0" devices="tripinfo_67" vType="DEFAULT_VEHTYPE" speedFactor="1.01" vaporized=""/>
    <tripinfo id="11" depart="13.00" departLane="422688973_1" departPos="5.10" departSpeed="15.75" departDelay="0.00" arrival="122.00" arrivalLane="-105681660#20_0" arrivalPos="806.12" arrivalSpeed="20.01" duration="109.00" routeLength="1352.23" waitingTime="8.00" waitingCount="2" stopTime="0.00" timeLoss="25.44" rerouteNo="0" devices="tripinfo_11" vType="DEFAULT_VEHTYPE" speedFactor="0.90" vaporized=""/>
    <tripinfo id="12" depart="13.00" departLane="918280985_0" departPos="5.10" departSpeed="11.93" departDelay="0.00" arrival="128.00" arrivalLane="-105681660#20_0" arrivalPos="806.12" arrivalSpeed="19.70" duration="115.00" routeLength="1360.98" waitingTime="21.00" waitingCount="1" stopTime="0.00" timeLoss="33.86" rerouteNo="0" devices="tripinfo_12" vType="DEFAULT_VEHTYPE" speedFactor="0.94" vaporized=""/>
    <tripinfo id="44" depart="40.00" departLane="318908683#0_0" departPos="5.10" departSpeed="11.41" departDelay="0.00" arrival="129.00" arrivalLane="-597602756#0_0" arrivalPos="325.99" arrivalSpeed="24.32" duration="89.00" routeLength="1371.20" waitingTime="0.00" waitingCount="0" stopTime="0.00" timeLoss="20.82" rerouteNo="0" devices="tripinfo_44" vType="DEFAULT_VEHTYPE" speedFactor="1.10" vaporized=""/>
    <tripinfo id="15" depart="13.00" departLane="597602753#0_0" departPos="5.10" departSpeed="20.59" departDelay="0.00" arrival="130.00" arrivalLane="-318908683#1_0" arrivalPos="71.22" arrivalSpeed="11.86" duration="117.00" routeLength="1642.11" waitingTime="0.00" waitingCount="0" stopTime="0.00" timeLoss="13.79" rerouteNo="0" devices="tripinfo_15" vType="DEFAULT_VEHTYPE" speedFactor="0.93" vaporized=""/>
    <tripinfo id="26" depart="22.00" departLane="918280985_0" departPos="5.10" departSpeed="10.50" departDelay="0.00" arrival="130.00" arrivalLane="-105681660#20_0" arrivalPos="806.12" arrivalSpeed="23.89" duration="108.00" routeLength="1360.98" waitingTime="13.00" waitingCount="1" stopTime="0.00" timeLoss="39.52" rerouteNo="0" devices="tripinfo_26" vType="DEFAULT_VEHTYPE" speedFactor="1.12" vaporized=""/>
    <tripinfo id="13" depart="13.00" departLane="-260998164#3_0" departPos="5.10" departSpeed="31.19" departDelay="0.00" arrival="131.00" arrivalLane="422688976#1_0" arrivalPos="294.40" arrivalSpeed="30.07" duration="118.00" routeLength="1712.42" waitingTime="37.00" waitingCount="2" stopTime="0.00" timeLoss="61.58" rerouteNo="0" devices="tripinfo_13" vType="DEFAULT_VEHTYPE" speedFactor="1.12" vaporized=""/>
    <tripinfo id="40" depart="33.00" departLane="318908683#0_0" departPos="5.10" departSpeed="12.18" departDelay="0.00" arrival="131.00" arrivalLane="-597602753#1_0" arrivalPos="143.59" arrivalSpeed="18.92" duration="98.00" routeLength="1208.14" waitingTime="12.00" waitingCount="1" stopTime="0.00" timeLoss="32.89" rerouteNo="0" devices="tripinfo_40" vType="DEFAULT_VEHTYPE" speedFactor="0.88" vaporized=""/>
    <tripinfo id="53" depart="56.00" departLane="918280985_0" departPos="5.10" departSpeed="13.16" departDelay="0.00" arrival="131.00" arrivalLane="-318908683#1_0" arrivalPos="71.22" arrivalSpeed="12.30" duration="75.00" routeLength="674.50" waitingTime="29.00" waitingCount="1" stopTime="0.00" timeLoss="43.11" rerouteNo="0" devices="tripinfo_53" vType="DEFAULT_VEHTYPE" speedFactor="0.95" vaporized=""/>
    <tripinfo id="4" depart="6.00" departLane="422688973_0" departPos="5.10" departSpeed="33.35" departDelay="0.00" arrival="132.00" arrivalLane="-597602756#0_0" arrivalPos="325.99" arrivalSpeed="26.27" duration="126.00" routeLength="1901.28" waitingTime="28.00" waitingCount="1" stopTime="0.00" timeLoss="49.77" rerouteNo="0" devices="tripinfo_4" vType="DEFAULT_VEHTYPE" speedFactor="1.20" vaporized=""/>
    <tripinfo id="22" depart="18.00" departLane="-260998164#3_0" departPos="5.10" departSpeed="24.24" departDelay="0.00" arrival="132.00" arrivalLane="422688976#1_1" arrivalPos="294.40" arrivalSpeed="23.73" duration="114.00" routeLength="1712.42" waitingTime="22.00" waitingCount="2" stopTime="0.00" timeLoss="41.76" rerouteNo="0" devices="tripinfo_22" vType="DEFAULT_VEHTYPE" speedFactor="0.87" vaporized=""/>
    <tripinfo id="25" depart="22.00" departLane="597602753#0_0" departPos="5.10" departSpeed="25.65" departDelay="0.00" arrival="134.00" arrivalLane="422688976#1_1" arrivalPos="294.40" arrivalSpeed="28.03" duration="112.00" routeLength="1788.22" waitingTime="7.00" waitingCount="1" stopTime="0.00" timeLoss="47.09" rerouteNo="0" devices="tripinfo_25" vType="DEFAULT_VEHTYPE" speedFactor="1.15" vaporized=""/>
    <tripinfo id="49" depart="49.00" departLane="918280985_0" departPos="5.10" departSpeed="15.55" departDelay="0.00" arrival="135.00" arrivalLane="15374898#0-AddedOffRampEdge_0" arrivalPos="100.00" arrivalSpeed="30.75" duration="86.00" routeLength="996.81" waitingTime="37.00" waitingCount="1" stopTime="0.00" timeLoss="51.31" rerouteNo="0" devices="tripinfo_49" vType="DEFAULT_VEHTYPE" speedFactor="1.12" vaporized=""/>
    <tripinfo id="52" depart="54.00" departLane="-260998164#3_0" departPos="5.10" departSpeed="26.66" departDelay="0.00" arrival="140.00" arrivalLane="-597602756#0_0" arrivalPos="325.99" arrivalSpeed="20.86" duration="86.00" routeLength="1231.40" waitingTime="0.00" waitingCount="0" stopTime="0.00" timeLoss="10.36" rerouteNo="0" devices="tripinfo_52" vType="DEFAULT_VEHTYPE" speedFactor="0.96" vaporized=""/>
    <tripinfo id="23" depart="19.00" departLane="-260998164#3_0" departPos="5.10" departSpeed="21.70" departDelay="1.00" arrival="143.00" arrivalLane="918280984_0" arrivalPos="38.78" arrivalSpeed="13.11" duration="124.00" routeLength="1465.15" waitingTime="43.00" waitingCount="2" stopTime="0.00" timeLoss="68.57" rerouteNo="0" devices="tripinfo_23" vType="DEFAULT_VEHTYPE" speedFactor="1.03" vaporized=""/>
    <tripinfo id="14" depart="14.00" departLane="597602753#0_0" departPos="5.10" departSpeed="18.04" departDelay="1.00" arrival="145.00" arrivalLane="918280984_0" arrivalPos="38.78" arrivalSpeed="13.56" duration="131.00" routeLength="1540.95" waitingTime="29.00" waitingCount="2" stopTime="0.00" timeLoss="64.72" rerouteNo="0" devices="tripinfo_14" vType="DEFAULT_VEHTYPE" speedFactor="1.04" vaporized=""/>
    <tripinfo id="47" depart="48.00" departLane="422685671#2_0" departPos="5.10" departSpeed="28.44" departDelay="0.00" arrival="147.00" arrivalLane="918280984_0" arrivalPos="38.78" arrivalSpeed="12.95" duration="99.00" routeLength="1069.78" waitingTime="33.00" waitingCount="2" stopTime="0.00" timeLoss="55.43" rerouteNo="0" devices="tripinfo_47" vType="DEFAULT_VEHTYPE" speedFactor="1.02" vaporized=""/>
    <tripinfo id="58" depart="62.00" departLane="105681660#12_0" departPos="5.10" departSpeed="24.84" departDelay="0.00" arrival="151.00" arrivalLane="-597602753#1_0" arrivalPos="143.59" arrivalSpeed="23.61" duration="89.00" routeLength="1380.56" waitingTime="17.00" waitingCount="2" stopTime="0.00" timeLoss="32.10" rerouteNo="0" devices="tripinfo_58" vType="DEFAULT_VEHTYPE" speedFactor="1.12" vaporized=""/>
    <tripinfo id="8" depart="9.00" departLane="918280985_0" departPos="5.10" departSpeed="13.03" departDelay="0.00" arrival="152.00" arrivalLane="-597602756#0_0" arrivalPos="325.99" arrivalSpeed="20.70" duration="143.00" routeLength="1891.55" waitingTime="23.00" waitingCount="1" stopTime="0.00" timeLoss="43.17" rerouteNo="0" devices="tripinfo_8" vType="DEFAULT_VEHTYPE" speedFactor="0.94" vaporized=""/>
    <tripinfo id="71" depart="73.00" departLane="422688973_0" departPos="5.10" departSpeed="0.00" departDelay="0.00" arrival="155.00" arrivalLane="-105681660#20_0" arrivalPos="806.12" arrivalSpeed="22.43" duration="82.00" routeLength="1352.23" waitingTime="0.00" waitingCount="0" stopTime="0.00" timeLoss="9.91" rerouteNo="0" devices="tripinfo_71" vType="DEFAULT_VEHTYPE" speedFactor="1.05" vaporized=""/>
    <tripinfo id="75" depart="83.00" departLane="597602753#0_0" departPos="5.10" departSpeed="24.38" departDelay="0.00" arrival="164.00" arrivalLane="-597602756#0_0" arrivalPos="325.99" arrivalSpeed="23.75" duration="81.00" routeLength="1646.04" waitingTime="0.00" waitingCount="0" stopTime="0.00" timeLoss="12.39" rerouteNo="0" devices="tripinfo_75" vType="DEFAULT_VEHTYPE" speedFactor="1.10" vaporized=""/>
    <tripinfo id="121" depart="118.00" departLane="422688973_0" departPos="5.10" departSpeed="16.08" departDelay="0.00" arrival="168.00" arrivalLane="15374898#0-AddedOffRampEdge_0" arrivalPos="100.00" arrivalSpeed="24.84" duration="50.00" routeLength="1006.54" waitingTime="0.00" waitingCount="0" stopTime="0.00" timeLoss="9.55" rerouteNo="0" devices="tripinfo_121" vType="DEFAULT_VEHTYPE" speedFactor="0.91" vaporized=""/>
    <tripinfo id="31" depart="26.00" departLane="597602753#0_0" departPos="5.10" departSpeed="18.55" departDelay="0.00" arrival="171.00" arrivalLane="260998164#0_0" arrivalPos="257.55" arrivalSpeed="22.53" duration="145.00" routeLength="1937.50" waitingTime="3.00" waitingCount="1" stopTime="0.00" timeLoss="31.66" rerouteNo="0" devices="tripinfo_31" vType="DEFAULT_VEHTYPE" speedFactor="0.83" vaporized=""/>
    <tripinfo id="35" depart="30.00" departLane="-260998164#3_0" departPos="5.10" departSpeed="28.83" departDelay="0.00" arrival="171.00" arrivalLane="-105681660#20_0" arrivalPos="806.12" arrivalSpeed="22.22" duration="141.00" routeLength="2208.42" waitingTime="24.00" waitingCount="2" stopTime="0.00" timeLoss="51.07" rerouteNo="0" devices="tripinfo_35" vType="DEFAULT_VEHTYPE" speedFactor="1.04" vaporized=""/>
    <tripinfo id="37" depart="31.00" departLane="-260998164#3_0" departPos="5.10" departSpeed="21.41" departDelay="1.00" arrival="173.00" arrivalLane="-597602753#1_0" arrivalPos="143.59" arrivalSpeed="16.06" duration="142.00" routeLength="1979.71" waitingTime="7.00" waitingCount="2" stopTime="0.00" timeLoss="34.66" rerouteNo="0" devices="tripinfo_37" vType="DEFAULT_VEHTYPE" speedFactor="0.77" vaporized=""/>
    <tripinfo id="73" depart="80.00" departLane="-260998164#3_0" departPos="5.10" departSpeed="25.18" departDelay="0.00" arrival="173.00" arrivalLane="-597602756#0_0" arrivalPos="325.99" arrivalSpeed="18.89" duration="93.00" routeLength="1231.40" waitingTime="1.00" waitingCount="1" stopTime="0.00" timeLoss="13.55" rerouteNo="0" devices="tripinfo_73" vType="DEFAULT_VEHTYPE" speedFactor="0.91" vaporized=""/>
    <tripinfo id="63" depart="65.00" departLane="597602756#0_0" departPos="5.10" departSpeed="22.60" departDelay="0.00" arrival="174.00" arrivalLane="-105681660#20_0" arrivalPos="806.12" arrivalSpeed="22.31" duration="109.00" routeLength="1867.67" waitingTime="6.00" waitingCount="1" stopTime="0.00" timeLoss="24.36" rerouteNo="0" devices="tripinfo_63" vType="DEFAULT_VEHTYPE" speedFactor="1.02" vaporized=""/>
    <tripinfo id="79" depart="90.00" departLane="422685671#2_0" departPos="5.10" departSpeed="29.80" departDelay="0.00" arrival="174.00" arrivalLane="-597602753#1_0" arrivalPos="143.59" arrivalSpeed="17.32" duration="84.00" routeLength="1584.34" waitingTime="0.00" waitingCount="0" stopTime="0.00" timeLoss="19.54" rerouteNo="0" devices="tripinfo_79" vType="DEFAULT_VEHTYPE" speedFactor="1.07" vaporized=""/>
    <tripinfo id="29" depart="24.00" departLane="105681660#12_0" departPos="5.10" departSpeed="22.66" departDelay="0.00" arrival="175.00" arrivalLane="260998164#0_0" arrivalPos="257.55" arrivalSpeed="27.42" duration="151.00" routeLength="2169.41" waitingTime="15.00" waitingCount="3" stopTime="0.00" timeLoss="48.05" rerouteNo="0" devices="tripinfo_29" vType="DEFAULT_VEHTYPE" speedFactor="1.02" vaporized=""/>
    <tripinfo id="80" depart="90.00" departLane="422685671#2_1" departPos="5.10" departSpeed="29.89" departDelay="0.00" arrival="176.00" arrivalLane="-597602753#1_0" arrivalPos="143.59" arrivalSpeed="19.83" duration="86.00" routeLength="1584.34" waitingTime="0.00" waitingCount="0" stopTime="0.00" timeLoss="20.70" rerouteNo="0" devices="tripinfo_80" vType="DEFAULT_VEHTYPE" speedFactor="1.08" vaporized=""/>
    <tripinfo id="21" depart="18.00" departLane="422688973_1" departPos="5.10" departSpeed="15.75" departDelay="0.00" arrival="177.00" arrivalLane="260998164#0_0" arrivalPos="257.55" arrivalSpeed="30.45" duration="159.00" routeLength="1470.06" waitingTime="85.00" waitingCount="2" stopTime="0.00" timeLoss="110.41" rerouteNo="0" devices="tripinfo_21" vType="DEFAULT_VEHTYPE" speedFactor="1.13" vaporized=""/>
    <tripinfo id="64" depart="66.00" departLane="422685671#2_0" departPos="5.10" departSpeed="30.06" departDelay="0.00" arrival="177.00" arrivalLane="-105681660#20_0" arrivalPos="806.12" arrivalSpeed="22.92" duration="111.00" routeLength="1813.05" waitingTime="11.00" waitingCount="1" stopTime="0.00" timeLoss="36.61" rerouteNo="0" devices="tripinfo_64" vType="DEFAULT_VEHTYPE" speedFactor="1.08" vaporized=""/>
    <tripinfo id="51" depart="53.00" departLane="422688973_1" departPos="5.10" departSpeed="14.04" departDelay="0.00" arrival="180.00" arrivalLane="260998164#0_0" arrivalPos="257.55" arrivalSpeed="26.95" duration="127.00" routeLength="1470.06" waitingTime="55.00" waitingCount="1" stopTime="0.00" timeLoss="71.75" rerouteNo="0" devices="tripinfo_51" vType="DEFAULT_VEHTYPE" speedFactor="0.99" vaporized=""/>
    <tripinfo id="68" depart="70.00" departLane="918280985_0" departPos="5.10" departSpeed="7.50" departDelay="0.00" arrival="185.00" arrivalLane="-597602753#1_0" arrivalPos="143.59" arrivalSpeed="20.39" duration="115.00" routeLength="1123.56" waitingTime="23.00" waitingCount="2" stopTime="0.00" timeLoss="43.76" rerouteNo="0" devices="tripinfo_68" vType="DEFAULT_VEHTYPE" speedFactor="0.94" vaporized=""/>
    <tripinfo id="57" depart="60.00" departLane="-260998164#3_0" departPos="5.10" departSpeed="25.78" departDelay="0.00" arrival="189.00" arrivalLane="15374898#0-AddedOffRampEdge_0" arrivalPos="100.00" arrivalSpeed="24.71" duration="129.00" routeLength="1332.80" waitingTime="65.00" waitingCount="1" stopTime="0.00" timeLoss="76.34" rerouteNo="0" devices="tripinfo_57" vType="DEFAULT_VEHTYPE" speedFactor="0.93" vaporized=""/>
    <tripinfo id="66" depart="68.00" departLane="-260998164#3_0" departPos="5.10" departSpeed="27.11" departDelay="0.00" arrival="189.00" arrivalLane="15374898#0-AddedOffRampEdge_1" arrivalPos="100.00" arrivalSpeed="26.59" duration="121.00" routeLength="1332.80" waitingTime="60.00" waitingCount="1" stopTime="0.00" timeLoss="71.71" rerouteNo="0" devices="tripinfo_66" vType="DEFAULT_VEHTYPE" speedFactor="0.98" vaporized=""/>
    <tripinfo id="78" depart="88.00" departLane="597602753#0_0" departPos="5.10" departSpeed="21.08" departDelay="0.00" arrival="189.00" arrivalLane="-105681660#20_0" arrivalPos="806.12" arrivalSpeed="20.36" duration="101.00" routeLength="1387.70" waitingTime="20.00" waitingCount="2" stopTime="0.00" timeLoss="33.63" rerouteNo="0" devices="tripinfo_78" vType="DEFAULT_VEHTYPE" speedFactor="0.95" vaporized=""/>
    <tripinfo id="84" depart="94.00" departLane="918280985_0" departPos="5.10" departSpeed="3.00" departDelay="0.00" arrival="189.00" arrivalLane="260998164#0_0" arrivalPos="257.55" arrivalSpeed="34.06" duration="95.00" routeLength="1460.33" waitingTime="11.00" waitingCount="1" stopTime="0.00" timeLoss="48.59" rerouteNo="0" devices="tripinfo_84" vType="DEFAULT_VEHTYPE" speedFactor="1.25" vaporized=""/>
    <tripinfo id="30" depart="25.00" departLane="422685671#2_1" departPos="5.10" departSpeed="26.11" departDelay="0.00" arrival="193.00" arrivalLane="422688976#1_1" arrivalPos="294.40" arrivalSpeed="24.87" duration="168.00" routeLength="1317.05" waitingTime="91.00" waitingCount="2" stopTime="0.00" timeLoss="115.40" rerouteNo="0" devices="tripinfo_30" vType="DEFAULT_VEHTYPE" speedFactor="0.94" vaporized=""/>
    <tripinfo id="36" depart="30.00" departLane="422685671#2_1" departPos="5.10" departSpeed="25.02" departDelay="0.00" arrival="193.00" arrivalLane="422688976#1_0" arrivalPos="294.40" arrivalSpeed="24.78" duration="163.00" routeLength="1317.05" waitingTime="84.00" waitingCount="2" stopTime="0.00" timeLoss="107.44" rerouteNo="0" devices="tripinfo_36" vType="DEFAULT_VEHTYPE" speedFactor="0.90" vaporized=""/>
    <tripinfo id="74" depart="81.00" departLane="-260998164#3_0" departPos="5.10" departSpeed="23.52" departDelay="0.00" arrival="193.00" arrivalLane="-318908683#1_0" arrivalPos="71.22" arrivalSpeed="15.54" duration="112.00" routeLength="955.07" waitingTime="60.00" waitingCount="1" stopTime="0.00" timeLoss="78.35" rerouteNo="0" devices="tripinfo_74" vType="DEFAULT_VEHTYPE" speedFactor="1.14" vaporized=""/>
    <tripinfo id="55" depart="57.00" departLane="105681660#12_0" departPos="5.10" departSpeed="22.71" departDelay="0.00" arrival="195.00" arrivalLane="422688976#1_1" arrivalPos="294.40" arrivalSpeed="27.88" duration="138.00" routeLength="2020.13" waitingTime="17.00" waitingCount="2" stopTime="0.00" timeLoss="54.22" rerouteNo="0" devices="tripinfo_55" vType="DEFAULT_VEHTYPE" speedFactor="1.02" vaporized=""/>
    <tripinfo id="27" depart="23.00" departLane="597602753#0_0" departPos="5.10" departSpeed="21.52" departDelay="0.00" arrival="196.00" arrivalLane="-318908683#1_0" arrivalPos="71.22" arrivalSpeed="13.28" duration="173.00" routeLength="1603.43" waitingTime="50.00" waitingCount="2" stopTime="0.00" timeLoss="83.45" rerouteNo="0" devices="tripinfo_27" vType="DEFAULT_VEHTYPE" speedFactor="0.97" vaporized=""/>
    <tripinfo id="41" depart="34.00" departLane="105681660#12_0" departPos="5.10" departSpeed="25.97" departDelay="0.00" arrival="198.00" arrivalLane="-318908683#1_0" arrivalPos="71.22" arrivalSpeed="16.23" duration="164.00" routeLength="1835.34" waitingTime="31.00" waitingCount="4" stopTime="0.00" timeLoss="78.99" rerouteNo="0" devices="tripinfo_41" vType="DEFAULT_VEHTYPE" speedFactor="1.17" vaporized=""/>
    <tripinfo id="48" depart="49.00" departLane="318908683#0_0" departPos="5.10" departSpeed="13.85" departDelay="0.00" arrival="199.00" arrivalLane="-597602753#1_0" arrivalPos="143.59" arrivalSpeed="21.55" duration="150.00" routeLength="1208.14" waitingTime="71.00" waitingCount="2" stopTime="0.00" timeLoss="93.00" rerouteNo="0" devices="tripinfo_48" vType="DEFAULT_VEHTYPE" speedFactor="1.00" vaporized=""/>
    <tripinfo id="101" depart="106.00" departLane="318908683#0_0" departPos="5.10" departSpeed="14.34" departDelay="0.00" arrival="199.00" arrivalLane="-597602756#0_0" arrivalPos="325.99" arrivalSpeed="21.83" duration="93.00" routeLength="1401.85" waitingTime="6.00" waitingCount="1" stopTime="0.00" timeLoss="28.29" rerouteNo="0" devices="tripinfo_101" vType="DEFAULT_VEHTYPE" speedFactor="1.03" vaporized=""/>
    <tripinfo id="90" depart="99.00" departLane="318908683#0_0" departPos="5.10" departSpeed="15.71" departDelay="0.00" arrival="200.00" arrivalLane="-597602753#1_0" arrivalPos="143.59" arrivalSpeed="23.99" duration="101.00" routeLength="1208.14" waitingTime="20.00" waitingCount="2" stopTime="0.00" timeLoss="50.97" rerouteNo="0" devices="tripinfo_90" vType="DEFAULT_VEHTYPE" speedFactor="1.13" vaporized=""/>