<?xml version="1.0" encoding="UTF-8"?>

<!-- generated on 2023-04-28 20:07:41 by Eclipse SUMO sumo Version 1.16.0
<configuration xmlns:xsi="http://www.w3.org/2001/XMLSchema-instance" xsi:noNamespaceSchemaLocation="http://sumo.dlr.de/xsd/sumoConfiguration.xsd">

    <input>
        <net-file value="C:\Users\Local_Man\Desktop\Stolen%20Music\school%20stuff%20for%20college\Semester%2015%20(UH%20Graduate%20School)\COSC%206364%20Nikolaos\SUMO_Project\COSC6364_Project\configurations\maps\Braess_Homebrew_fixed1.net.xml"/>
        <route-files value="./configurations/Rounds/Braess_Homebrew_fixed1.net.xml-test-0/Macroscopic_DUE/000/Trips_File_000.rou.xml"/>
    </input>

    <output>
        <summary-output value="./configurations/Rounds/Braess_Homebrew_fixed1.net.xml-test-0/Macroscopic_DUE/000/summary.xml"/>
        <tripinfo-output value="./configurations/Rounds/Braess_Homebrew_fixed1.net.xml-test-0/Macroscopic_DUE/000/trips.trips.xml"/>
        <statistic-output value="./configurations/Rounds/Braess_Homebrew_fixed1.net.xml-test-0/Macroscopic_DUE/000/stats_output.xml"/>
    </output>

    <time>
        <begin value="0"/>
    </time>

    <report>
        <log value="./configurations/Rounds/Braess_Homebrew_fixed1.net.xml-test-0/Macroscopic_DUE/000/log.sumo.log"/>
        <no-step-log value="true"/>
    </report>

    <gui_only>
        <quit-on-end value="true"/>
    </gui_only>

</configuration>
-->

<tripinfos xmlns:xsi="http://www.w3.org/2001/XMLSchema-instance" xsi:noNamespaceSchemaLocation="http://sumo.dlr.de/xsd/tripinfo_file.xsd">
    <tripinfo id="2" depart="0.00" departLane="E0_0" departPos="5.10" departSpeed="19.50" departDelay="0.00" arrival="95.00" arrivalLane="E3_0" arrivalPos="90.46" arrivalSpeed="28.43" duration="95.00" routeLength="1314.99" waitingTime="0.00" waitingCount="0" stopTime="0.00" timeLoss="10.40" rerouteNo="0" devices="tripinfo_2" vType="DEFAULT_VEHTYPE" speedFactor="0.98" vaporized=""/>
    <tripinfo id="3" depart="1.00" departLane="E0_0" departPos="5.10" departSpeed="16.96" departDelay="1.00" arrival="96.00" arrivalLane="E3_0" arrivalPos="90.46" arrivalSpeed="30.29" duration="95.00" routeLength="1314.99" waitingTime="0.00" waitingCount="0" stopTime="0.00" timeLoss="19.32" rerouteNo="0" devices="tripinfo_3" vType="DEFAULT_VEHTYPE" speedFactor="1.08" vaporized=""/>
    <tripinfo id="4" depart="2.00" departLane="E0_0" departPos="5.10" departSpeed="14.44" departDelay="1.00" arrival="98.00" arrivalLane="E3_0" arrivalPos="90.46" arrivalSpeed="31.98" duration="96.00" routeLength="1314.99" waitingTime="0.00" waitingCount="0" stopTime="0.00" timeLoss="27.69" rerouteNo="0" devices="tripinfo_4" vType="DEFAULT_VEHTYPE" speedFactor="1.20" vaporized=""/>
    <tripinfo id="5" depart="3.00" departLane="E0_0" departPos="5.10" departSpeed="10.75" departDelay="2.00" arrival="99.00" arrivalLane="E3_0" arrivalPos="90.46" arrivalSpeed="30.79" duration="96.00" routeLength="1314.99" waitingTime="0.00" waitingCount="0" stopTime="0.00" timeLoss="17.70" rerouteNo="0" devices="tripinfo_5" vType="DEFAULT_VEHTYPE" speedFactor="1.05" vaporized=""/>
    <tripinfo id="6" depart="4.00" departLane="E0_0" departPos="5.10" departSpeed="7.88" departDelay="3.00" arrival="101.00" arrivalLane="E3_0" arrivalPos="90.46" arrivalSpeed="31.19" duration="97.00" routeLength="1314.99" waitingTime="0.00" waitingCount="0" stopTime="0.00" timeLoss="20.56" rerouteNo="0" devices="tripinfo_6" vType="DEFAULT_VEHTYPE" speedFactor="1.08" vaporized=""/>
    <tripinfo id="7" depart="5.00" departLane="E0_0" departPos="5.10" departSpeed="3.06" departDelay="2.00" arrival="110.00" arrivalLane="E3_0" arrivalPos="90.46" arrivalSpeed="27.35" duration="105.00" routeLength="1314.99" waitingTime="0.00" waitingCount="0" stopTime="0.00" timeLoss="17.82" rerouteNo="0" devices="tripinfo_7" vType="DEFAULT_VEHTYPE" speedFactor="0.94" vaporized=""/>
    <tripinfo id="8" depart="8.00" departLane="E0_0" departPos="5.10" departSpeed="5.58" departDelay="2.00" arrival="112.00" arrivalLane="E3_0" arrivalPos="90.46" arrivalSpeed="29.66" duration="104.00" routeLength="1314.99" waitingTime="0.00" waitingCount="0" stopTime="0.00" timeLoss="23.21" rerouteNo="0" devices="tripinfo_8" vType="DEFAULT_VEHTYPE" speedFactor="1.02" vaporized=""/>
    <tripinfo id="9" depart="10.00" departLane="E0_0" departPos="5.10" departSpeed="5.15" departDelay="3.00" arrival="113.00" arrivalLane="E3_0" arrivalPos="90.46" arrivalSpeed="29.74" duration="103.00" routeLength="1314.99" waitingTime="0.00" waitingCount="0" stopTime="0.00" timeLoss="27.94" rerouteNo="0" devices="tripinfo_9" vType="DEFAULT_VEHTYPE" speedFactor="1.09" vaporized=""/>
    <tripinfo id="10" depart="12.00" departLane="E0_0" departPos="5.10" departSpeed="2.48" departDelay="5.00" arrival="120.00" arrivalLane="E3_0" arrivalPos="90.46" arrivalSpeed="27.61" duration="108.00" routeLength="1314.99" waitingTime="0.00" waitingCount="0" stopTime="0.00" timeLoss="18.77" rerouteNo="0" devices="tripinfo_10" vType="DEFAULT_VEHTYPE" speedFactor="0.92" vaporized=""/>
    <tripinfo id="11" depart="15.00" departLane="E0_0" departPos="5.10" departSpeed="2.65" departDelay="5.00" arrival="121.00" arrivalLane="E3_0" arrivalPos="90.46" arrivalSpeed="28.91" duration="106.00" routeLength="1314.99" waitingTime="0.00" waitingCount="0" stopTime="0.00" timeLoss="32.90" rerouteNo="0" devices="tripinfo_11" vType="DEFAULT_VEHTYPE" speedFactor="1.12" vaporized=""/>
    <tripinfo id="12" depart="18.00" departLane="E0_0" departPos="5.10" departSpeed="6.35" departDelay="8.00" arrival="128.00" arrivalLane="E3_0" arrivalPos="90.46" arrivalSpeed="26.90" duration="110.00" routeLength="1314.99" waitingTime="0.00" waitingCount="0" stopTime="0.00" timeLoss="18.63" rerouteNo="0" devices="tripinfo_12" vType="DEFAULT_VEHTYPE" speedFactor="0.90" vaporized=""/>
    <tripinfo id="13" depart="20.00" departLane="E0_0" departPos="5.10" departSpeed="7.42" departDelay="10.00" arrival="129.00" arrivalLane="E3_0" arrivalPos="90.46" arrivalSpeed="26.60" duration="109.00" routeLength="1314.99" waitingTime="0.00" waitingCount="0" stopTime="0.00" timeLoss="20.64" rerouteNo="0" devices="tripinfo_13" vType="DEFAULT_VEHTYPE" speedFactor="0.93" vaporized=""/>
    <tripinfo id="14" depart="22.00" departLane="E0_0" departPos="5.10" departSpeed="7.47" departDelay="10.00" arrival="130.00" arrivalLane="E3_0" arrivalPos="90.46" arrivalSpeed="29.02" duration="108.00" routeLength="1314.99" waitingTime="0.00" waitingCount="0" stopTime="0.00" timeLoss="29.53" rerouteNo="0" devices="tripinfo_14" vType="DEFAULT_VEHTYPE" speedFactor="1.04" vaporized=""/>
    <tripinfo id="15" depart="24.00" departLane="E0_0" departPos="5.10" departSpeed="7.93" departDelay="11.00" arrival="133.00" arrivalLane="E3_0" arrivalPos="90.46" arrivalSpeed="27.08" duration="109.00" routeLength="1314.99" waitingTime="0.00" waitingCount="0" stopTime="0.00" timeLoss="21.03" rerouteNo="0" devices="tripinfo_15" vType="DEFAULT_VEHTYPE" speedFactor="0.94" vaporized=""/>
    <tripinfo id="16" depart="26.00" departLane="E0_0" departPos="5.10" departSpeed="9.72" departDelay="13.00" arrival="134.00" arrivalLane="E3_0" arrivalPos="90.46" arrivalSpeed="29.31" duration="108.00" routeLength="1314.99" waitingTime="0.00" waitingCount="0" stopTime="0.00" timeLoss="32.17" rerouteNo="0" devices="tripinfo_16" vType="DEFAULT_VEHTYPE" speedFactor="1.08" vaporized=""/>
    <tripinfo id="17" depart="27.00" departLane="E0_0" departPos="5.10" departSpeed="6.13" departDelay="12.00" arrival="135.00" arrivalLane="E3_0" arrivalPos="90.46" arrivalSpeed="29.12" duration="108.00" routeLength="1314.99" waitingTime="0.00" waitingCount="0" stopTime="0.00" timeLoss="27.08" rerouteNo="0" devices="tripinfo_17" vType="DEFAULT_VEHTYPE" speedFactor="1.01" vaporized=""/>
    <tripinfo id="18" depart="29.00" departLane="E0_0" departPos="5.10" departSpeed="7.12" departDelay="13.00" arrival="137.00" arrivalLane="E3_0" arrivalPos="90.46" arrivalSpeed="30.38" duration="108.00" routeLength="1314.99" waitingTime="0.00" waitingCount="0" stopTime="0.00" timeLoss="27.76" rerouteNo="0" devices="tripinfo_18" vType="DEFAULT_VEHTYPE" speedFactor="1.03" vaporized=""/>
    <tripinfo id="19" depart="31.00" departLane="E0_0" departPos="5.10" departSpeed="7.13" departDelay="15.00" arrival="145.00" arrivalLane="E3_0" arrivalPos="90.46" arrivalSpeed="26.35" duration="114.00" routeLength="1314.99" waitingTime="0.00" waitingCount="0" stopTime="0.00" timeLoss="21.59" rerouteNo="0" devices="tripinfo_19" vType="DEFAULT_VEHTYPE" speedFactor="0.89" vaporized=""/>
    <tripinfo id="20" depart="33.00" departLane="E0_0" departPos="5.10" departSpeed="7.74" departDelay="16.00" arrival="146.00" arrivalLane="E3_0" arrivalPos="90.46" arrivalSpeed="27.57" duration="113.00" routeLength="1314.99" waitingTime="0.00" waitingCount="0" stopTime="0.00" timeLoss="31.65" rerouteNo="0" devices="tripinfo_20" vType="DEFAULT_VEHTYPE" speedFactor="1.01" vaporized=""/>
    <tripinfo id="21" depart="35.00" departLane="E0_0" departPos="5.10" departSpeed="5.60" departDelay="17.00" arrival="152.00" arrivalLane="E3_0" arrivalPos="90.46" arrivalSpeed="25.40" duration="117.00" routeLength="1314.99" waitingTime="0.00" waitingCount="0" stopTime="0.00" timeLoss="22.38" rerouteNo="0" devices="tripinfo_21" vType="DEFAULT_VEHTYPE" speedFactor="0.87" vaporized=""/>
    <tripinfo id="22" depart="37.00" departLane="E0_0" departPos="5.10" departSpeed="3.61" departDelay="19.00" arrival="153.00" arrivalLane="E3_0" arrivalPos="90.46" arrivalSpeed="27.50" duration="116.00" routeLength="1314.99" waitingTime="0.00" waitingCount="0" stopTime="0.00" timeLoss="36.26" rerouteNo="0" devices="tripinfo_22" vType="DEFAULT_VEHTYPE" speedFactor="1.03" vaporized=""/>
    <tripinfo id="23" depart="39.00" departLane="E0_0" departPos="5.10" departSpeed="0.00" departDelay="21.00" arrival="154.00" arrivalLane="E3_0" arrivalPos="90.46" arrivalSpeed="28.70" duration="115.00" routeLength="1314.99" waitingTime="1.00" waitingCount="1" stopTime="0.00" timeLoss="42.64" rerouteNo="0" devices="tripinfo_23" vType="DEFAULT_VEHTYPE" speedFactor="1.13" vaporized=""/>
    <tripinfo id="24" depart="43.00" departLane="E0_0" departPos="5.10" departSpeed="2.89" departDelay="22.00" arrival="158.00" arrivalLane="E3_0" arrivalPos="90.46" arrivalSpeed="26.63" duration="115.00" routeLength="1314.99" waitingTime="0.00" waitingCount="0" stopTime="0.00" timeLoss="23.45" rerouteNo="0" devices="tripinfo_24" vType="DEFAULT_VEHTYPE" speedFactor="0.89" vaporized=""/>
    <tripinfo id="25" depart="46.00" departLane="E0_0" departPos="5.10" departSpeed="5.88" departDelay="24.00" arrival="160.00" arrivalLane="E3_0" arrivalPos="90.46" arrivalSpeed="30.41" duration="114.00" routeLength="1314.99" waitingTime="0.00" waitingCount="0" stopTime="0.00" timeLoss="42.43" rerouteNo="0" devices="tripinfo_25" vType="DEFAULT_VEHTYPE" speedFactor="1.15" vaporized=""/>
    <tripinfo id="26" depart="48.00" departLane="E0_0" departPos="5.10" departSpeed="4.70" departDelay="26.00" arrival="161.00" arrivalLane="E3_0" arrivalPos="90.46" arrivalSpeed="30.22" duration="113.00" routeLength="1314.99" waitingTime="0.00" waitingCount="0" stopTime="0.00" timeLoss="39.45" rerouteNo="0" devices="tripinfo_26" vType="DEFAULT_VEHTYPE" speedFactor="1.12" vaporized=""/>
    <tripinfo id="27" depart="50.00" departLane="E0_0" departPos="5.10" departSpeed="3.06" departDelay="27.00" arrival="163.00" arrivalLane="E3_0" arrivalPos="90.46" arrivalSpeed="29.64" duration="113.00" routeLength="1314.99" waitingTime="0.00" waitingCount="0" stopTime="0.00" timeLoss="29.84" rerouteNo="0" devices="tripinfo_27" vType="DEFAULT_VEHTYPE" speedFactor="0.99" vaporized=""/>
    <tripinfo id="28" depart="53.00" departLane="E0_0" departPos="5.10" departSpeed="6.42" departDelay="29.00" arrival="164.00" arrivalLane="E3_0" arrivalPos="90.46" arrivalSpeed="27.76" duration="111.00" routeLength="1314.99" waitingTime="0.00" waitingCount="0" stopTime="0.00" timeLoss="26.33" rerouteNo="0" devices="tripinfo_28" vType="DEFAULT_VEHTYPE" speedFactor="0.97" vaporized=""/>
    <tripinfo id="29" depart="55.00" departLane="E0_0" departPos="5.10" departSpeed="6.64" departDelay="30.00" arrival="166.00" arrivalLane="E3_0" arrivalPos="90.46" arrivalSpeed="29.41" duration="111.00" routeLength="1314.99" waitingTime="0.00" waitingCount="0" stopTime="0.00" timeLoss="29.92" rerouteNo="0" devices="tripinfo_29" vType="DEFAULT_VEHTYPE" speedFactor="1.02" vaporized=""/>
    <tripinfo id="30" depart="57.00" departLane="E0_0" departPos="5.10" departSpeed="2.93" departDelay="32.00" arrival="169.00" arrivalLane="E3_0" arrivalPos="90.46" arrivalSpeed="27.84" duration="112.00" routeLength="1314.99" waitingTime="0.00" waitingCount="0" stopTime="0.00" timeLoss="24.56" rerouteNo="0" devices="tripinfo_30" vType="DEFAULT_VEHTYPE" speedFactor="0.94" vaporized=""/>
    <tripinfo id="31" depart="60.00" departLane="E0_0" departPos="5.10" departSpeed="4.76" departDelay="33.00" arrival="170.00" arrivalLane="E3_0" arrivalPos="90.46" arrivalSpeed="28.86" duration="110.00" routeLength="1314.99" waitingTime="0.00" waitingCount="0" stopTime="0.00" timeLoss="35.91" rerouteNo="0" devices="tripinfo_31" vType="DEFAULT_VEHTYPE" speedFactor="1.10" vaporized=""/>
    <tripinfo id="32" depart="62.00" departLane="E0_0" departPos="5.10" departSpeed="0.40" departDelay="35.00" arrival="186.00" arrivalLane="E3_0" arrivalPos="90.46" arrivalSpeed="24.15" duration="124.00" routeLength="1314.99" waitingTime="0.00" waitingCount="0" stopTime="0.00" timeLoss="25.53" rerouteNo="0" devices="tripinfo_32" vType="DEFAULT_VEHTYPE" speedFactor="0.83" vaporized=""/>
    <tripinfo id="33" depart="66.00" departLane="E0_0" departPos="5.10" departSpeed="3.54" departDelay="37.00" arrival="187.00" arrivalLane="E3_0" arrivalPos="90.46" arrivalSpeed="26.35" duration="121.00" routeLength="1314.99" waitingTime="0.00" waitingCount="0" stopTime="0.00" timeLoss="41.17" rerouteNo="0" devices="tripinfo_33" vType="DEFAULT_VEHTYPE" speedFactor="1.03" vaporized=""/>
    <tripinfo id="34" depart="68.00" departLane="E0_0" departPos="5.10" departSpeed="2.03" departDelay="39.00" arrival="189.00" arrivalLane="E3_0" arrivalPos="90.46" arrivalSpeed="28.96" duration="121.00" routeLength="1314.99" waitingTime="0.00" waitingCount="0" stopTime="0.00" timeLoss="43.51" rerouteNo="0" devices="tripinfo_34" vType="DEFAULT_VEHTYPE" speedFactor="1.07" vaporized=""/>
    <tripinfo id="35" depart="71.00" departLane="E0_0" departPos="5.10" departSpeed="1.66" departDelay="42.00" arrival="190.00" arrivalLane="E3_0" arrivalPos="90.46" arrivalSpeed="29.86" duration="119.00" routeLength="1314.99" waitingTime="0.00" waitingCount="0" stopTime="0.00" timeLoss="39.67" rerouteNo="0" devices="tripinfo_35" vType="DEFAULT_VEHTYPE" speedFactor="1.04" vaporized=""/>
    <tripinfo id="36" depart="74.00" departLane="E0_0" departPos="5.10" departSpeed="4.26" departDelay="45.00" arrival="202.00" arrivalLane="E3_0" arrivalPos="90.46" arrivalSpeed="23.06" duration="128.00" routeLength="1314.99" waitingTime="0.00" waitingCount="0" stopTime="0.00" timeLoss="21.52" rerouteNo="0" devices="tripinfo_36" vType="DEFAULT_VEHTYPE" speedFactor="0.77" vaporized=""/>
    <tripinfo id="37" depart="76.00" departLane="E0_0" departPos="5.10" departSpeed="1.72" departDelay="47.00" arrival="203.00" arrivalLane="E3_0" arrivalPos="90.46" arrivalSpeed="25.17" duration="127.00" routeLength="1314.99" waitingTime="0.00" waitingCount="0" stopTime="0.00" timeLoss="36.19" rerouteNo="0" devices="tripinfo_37" vType="DEFAULT_VEHTYPE" speedFactor="0.90" vaporized=""/>
    <tripinfo id="38" depart="79.00" departLane="E0_0" departPos="5.10" departSpeed="2.95" departDelay="48.00" arrival="205.00" arrivalLane="E3_0" arrivalPos="90.46" arrivalSpeed="25.91" duration="126.00" routeLength="1314.99" waitingTime="0.00" waitingCount="0" stopTime="0.00" timeLoss="45.58" rerouteNo="0" devices="tripinfo_38" vType="DEFAULT_VEHTYPE" speedFactor="1.02" vaporized=""/>
    <tripinfo id="39" depart="82.00" departLane="E0_0" departPos="5.10" departSpeed="5.35" departDelay="51.00" arrival="206.00" arrivalLane="E3_0" arrivalPos="90.46" arrivalSpeed="25.50" duration="124.00" routeLength="1314.99" waitingTime="0.00" waitingCount="0" stopTime="0.00" timeLoss="30.60" rerouteNo="0" devices="tripinfo_39" vType="DEFAULT_VEHTYPE" speedFactor="0.88" vaporized=""/>
    <tripinfo id="40" depart="84.00" departLane="E0_0" departPos="5.10" departSpeed="4.77" departDelay="51.00" arrival="208.00" arrivalLane="E3_0" arrivalPos="90.46" arrivalSpeed="28.26" duration="124.00" routeLength="1314.99" waitingTime="0.00" waitingCount="0" stopTime="0.00" timeLoss="46.74" rerouteNo="0" devices="tripinfo_40" vType="DEFAULT_VEHTYPE" speedFactor="1.06" vaporized=""/>
    <tripinfo id="41" depart="86.00" departLane="E0_0" departPos="5.10" departSpeed="4.96" departDelay="52.00" arrival="209.00" arrivalLane="E3_0" arrivalPos="90.46" arrivalSpeed="27.25" duration="123.00" routeLength="1314.99" waitingTime="0.00" waitingCount="0" stopTime="0.00" timeLoss="52.72" rerouteNo="0" devices="tripinfo_41" vType="DEFAULT_VEHTYPE" speedFactor="1.17" vaporized=""/>
    <tripinfo id="42" depart="89.00" departLane="E0_0" departPos="5.10" departSpeed="2.54" departDelay="54.00" arrival="211.00" arrivalLane="E3_0" arrivalPos="90.46" arrivalSpeed="28.47" duration="122.00" routeLength="1314.99" waitingTime="0.00" waitingCount="0" stopTime="0.00" timeLoss="43.20" rerouteNo="0" devices="tripinfo_42" vType="DEFAULT_VEHTYPE" speedFactor="1.05" vaporized=""/>
    <tripinfo id="43" depart="92.00" departLane="E0_0" departPos="5.10" departSpeed="5.72" departDelay="57.00" arrival="212.00" arrivalLane="E3_0" arrivalPos="90.46" arrivalSpeed="28.42" duration="120.00" routeLength="1314.99" waitingTime="0.00" waitingCount="0" stopTime="0.00" timeLoss="38.02" rerouteNo="0" devices="tripinfo_43" vType="DEFAULT_VEHTYPE" speedFactor="1.00" vaporized=""/>
    <tripinfo id="44" depart="94.00" departLane="E0_0" departPos="5.10" departSpeed="3.46" departDelay="59.00" arrival="213.00" arrivalLane="E3_0" arrivalPos="90.46" arrivalSpeed="29.74" duration="119.00" routeLength="1314.99" waitingTime="0.00" waitingCount="0" stopTime="0.00" timeLoss="44.86" rerouteNo="0" devices="tripinfo_44" vType="DEFAULT_VEHTYPE" speedFactor="1.10" vaporized=""/>
    <tripinfo id="45" depart="96.00" departLane="E0_0" departPos="5.10" departSpeed="1.07" departDelay="60.00" arrival="217.00" arrivalLane="E3_0" arrivalPos="90.46" arrivalSpeed="26.59" duration="121.00" routeLength="1314.99" waitingTime="0.00" waitingCount="0" stopTime="0.00" timeLoss="29.09" rerouteNo="0" devices="tripinfo_45" vType="DEFAULT_VEHTYPE" speedFactor="0.90" vaporized=""/>
    <tripinfo id="46" depart="99.00" departLane="E0_0" departPos="5.10" departSpeed="0.29" departDelay="62.00" arrival="218.00" arrivalLane="E3_0" arrivalPos="90.46" arrivalSpeed="27.91" duration="119.00" routeLength="1314.99" waitingTime="0.00" waitingCount="0" stopTime="0.00" timeLoss="33.32" rerouteNo="0" devices="tripinfo_46" vType="DEFAULT_VEHTYPE" speedFactor="0.96" vaporized=""/>
    <tripinfo id="47" depart="102.00" departLane="E0_0" departPos="5.10" departSpeed="0.56" departDelay="63.00" arrival="219.00" arrivalLane="E3_0" arrivalPos="90.46" arrivalSpeed="28.08" duration="117.00" routeLength="1314.99" waitingTime="0.00" waitingCount="0" stopTime="0.00" timeLoss="36.90" rerouteNo="0" devices="tripinfo_47" vType="DEFAULT_VEHTYPE" speedFactor="1.02" vaporized=""/>
    <tripinfo id="48" depart="106.00" departLane="E0_0" departPos="5.10" departSpeed="5.38" departDelay="66.00" arrival="221.00" arrivalLane="E3_0" arrivalPos="90.46" arrivalSpeed="29.63" duration="115.00" routeLength="1314.99" waitingTime="0.00" waitingCount="0" stopTime="0.00" timeLoss="32.27" rerouteNo="0" devices="tripinfo_48" vType="DEFAULT_VEHTYPE" speedFactor="1.00" vaporized=""/>
    <tripinfo id="49" depart="108.00" departLane="E0_0" departPos="5.10" departSpeed="5.36" departDelay="68.00" arrival="222.00" arrivalLane="E3_0" arrivalPos="90.46" arrivalSpeed="29.76" duration="114.00" routeLength="1314.99" waitingTime="0.00" waitingCount="0" stopTime="0.00" timeLoss="40.35" rerouteNo="0" devices="tripinfo_49" vType="DEFAULT_VEHTYPE" speedFactor="1.12" vaporized=""/>
    <tripinfo id="50" depart="110.00" departLane="E0_0" departPos="5.10" departSpeed="5.38" departDelay="70.00" arrival="224.00" arrivalLane="E3_0" arrivalPos="90.46" arrivalSpeed="29.43" duration="114.00" routeLength="1314.99" waitingTime="0.00" waitingCount="0" stopTime="0.00" timeLoss="31.17" rerouteNo="0" devices="tripinfo_50" vType="DEFAULT_VEHTYPE" speedFactor="1.00" vaporized=""/>
    <tripinfo id="51" depart="112.00" departLane="E0_0" departPos="5.10" departSpeed="4.88" departDelay="71.00" arrival="226.00" arrivalLane="E3_0" arrivalPos="90.46" arrivalSpeed="29.26" duration="114.00" routeLength="1314.99" waitingTime="0.00" waitingCount="0" stopTime="0.00" timeLoss="30.21" rerouteNo="0" devices="tripinfo_51" vType="DEFAULT_VEHTYPE" speedFactor="0.99" vaporized=""/>
    <tripinfo id="52" depart="114.00" departLane="E0_0" departPos="5.10" departSpeed="3.98" departDelay="73.00" arrival="229.00" arrivalLane="E3_0" arrivalPos="90.46" arrivalSpeed="28.31" duration="115.00" routeLength="1314.99" waitingTime="0.00" waitingCount="0" stopTime="0.00" timeLoss="28.89" rerouteNo="0" devices="tripinfo_52" vType="DEFAULT_VEHTYPE" speedFactor="0.96" vaporized=""/>
    <tripinfo id="53" depart="116.00" departLane="E0_0" departPos="5.10" departSpeed="0.52" departDelay="73.00" arrival="233.00" arrivalLane="E3_0" arrivalPos="90.46" arrivalSpeed="27.13" duration="117.00" routeLength="1314.99" waitingTime="0.00" waitingCount="0" stopTime="0.00" timeLoss="26.13" rerouteNo="0" devices="tripinfo_53" vType="DEFAULT_VEHTYPE" speedFactor="0.91" vaporized=""/>
    <tripinfo id="54" depart="120.00" departLane="E0_0" departPos="5.10" departSpeed="6.06" departDelay="77.00" arrival="234.00" arrivalLane="E3_0" arrivalPos="90.46" arrivalSpeed="27.38" duration="114.00" routeLength="1314.99" waitingTime="0.00" waitingCount="0" stopTime="0.00" timeLoss="27.27" rerouteNo="0" devices="tripinfo_54" vType="DEFAULT_VEHTYPE" speedFactor="0.95" vaporized=""/>
    <tripinfo id="55" depart="122.00" departLane="E0_0" departPos="5.10" departSpeed="4.84" departDelay="79.00" arrival="236.00" arrivalLane="E3_0" arrivalPos="90.46" arrivalSpeed="29.88" duration="114.00" routeLength="1314.99" waitingTime="0.00" waitingCount="0" stopTime="0.00" timeLoss="32.81" rerouteNo="0" devices="tripinfo_55" vType="DEFAULT_VEHTYPE" speedFactor="1.02" vaporized=""/>
    <tripinfo id="56" depart="124.00" departLane="E0_0" departPos="5.10" departSpeed="2.10" departDelay="80.00" arrival="238.00" arrivalLane="E3_0" arrivalPos="90.46" arrivalSpeed="27.65" duration="114.00" routeLength="1314.99" waitingTime="0.00" waitingCount="0" stopTime="0.00" timeLoss="25.50" rerouteNo="0" devices="tripinfo_56" vType="DEFAULT_VEHTYPE" speedFactor="0.93" vaporized=""/>
    <tripinfo id="57" depart="127.00" departLane="E0_0" departPos="5.10" departSpeed="1.61" departDelay="83.00" arrival="239.00" arrivalLane="E3_0" arrivalPos="90.46" arrivalSpeed="28.29" duration="112.00" routeLength="1314.99" waitingTime="0.00" waitingCount="0" stopTime="0.00" timeLoss="34.49" rerouteNo="0" devices="tripinfo_57" vType="DEFAULT_VEHTYPE" speedFactor="1.06" vaporized=""/>
    <tripinfo id="58" depart="130.00" departLane="E0_0" departPos="5.10" departSpeed="4.06" departDelay="81.00" arrival="241.00" arrivalLane="E3_0" arrivalPos="90.46" arrivalSpeed="30.50" duration="111.00" routeLength="1314.99" waitingTime="0.00" waitingCount="0" stopTime="0.00" timeLoss="37.17" rerouteNo="0" devices="tripinfo_58" vType="DEFAULT_VEHTYPE" speedFactor="1.12" vaporized=""/>
    <tripinfo id="59" depart="132.00" departLane="E0_0" departPos="5.10" departSpeed="1.09" departDelay="82.00" arrival="242.00" arrivalLane="E3_0" arrivalPos="90.46" arrivalSpeed="30.40" duration="110.00" routeLength="1314.99" waitingTime="0.00" waitingCount="0" stopTime="0.00" timeLoss="30.51" rerouteNo="0" devices="tripinfo_59" vType="DEFAULT_VEHTYPE" speedFactor="1.03" vaporized=""/>
    <tripinfo id="60" depart="135.00" departLane="E0_0" departPos="5.10" departSpeed="0.87" departDelay="85.00" arrival="249.00" arrivalLane="E3_0" arrivalPos="90.46" arrivalSpeed="26.61" duration="114.00" routeLength="1314.99" waitingTime="0.00" waitingCount="0" stopTime="0.00" timeLoss="24.08" rerouteNo="0" devices="tripinfo_60" vType="DEFAULT_VEHTYPE" speedFactor="0.92" vaporized=""/>
    <tripinfo id="61" depart="138.00" departLane="E0_0" departPos="5.10" departSpeed="2.05" departDelay="87.00" arrival="250.00" arrivalLane="E3_0" arrivalPos="90.46" arrivalSpeed="28.29" duration="112.00" routeLength="1314.99" waitingTime="0.00" waitingCount="0" stopTime="0.00" timeLoss="36.34" rerouteNo="0" devices="tripinfo_61" vType="DEFAULT_VEHTYPE" speedFactor="1.09" vaporized=""/>
    <tripinfo id="62" depart="141.00" departLane="E0_0" departPos="5.10" departSpeed="3.66" departDelay="90.00" arrival="256.00" arrivalLane="E3_0" arrivalPos="90.46" arrivalSpeed="26.64" duration="115.00" routeLength="1314.99" waitingTime="0.00" waitingCount="0" stopTime="0.00" timeLoss="23.60" rerouteNo="0" devices="tripinfo_62" vType="DEFAULT_VEHTYPE" speedFactor="0.90" vaporized=""/>
    <tripinfo id="63" depart="144.00" departLane="E0_0" departPos="5.10" departSpeed="7.20" departDelay="92.00" arrival="258.00" arrivalLane="E3_0" arrivalPos="90.46" arrivalSpeed="29.64" duration="114.00" routeLength="1314.99" waitingTime="0.00" waitingCount="0" stopTime="0.00" timeLoss="32.52" rerouteNo="0" devices="tripinfo_63" vType="DEFAULT_VEHTYPE" speedFactor="1.02" vaporized=""/>
    <tripinfo id="64" depart="146.00" departLane="E0_0" departPos="5.10" departSpeed="5.34" departDelay="92.00" arrival="259.00" arrivalLane="E3_0" arrivalPos="90.46" arrivalSpeed="30.29" duration="113.00" routeLength="1314.99" waitingTime="0.00" waitingCount="0" stopTime="0.00" timeLoss="36.73" rerouteNo="0" devices="tripinfo_64" vType="DEFAULT_VEHTYPE" speedFactor="1.08" vaporized=""/>
    <tripinfo id="65" depart="148.00" departLane="E0_0" departPos="5.10" departSpeed="5.62" departDelay="94.00" arrival="260.00" arrivalLane="E3_0" arrivalPos="90.46" arrivalSpeed="28.23" duration="112.00" routeLength="1314.99" waitingTime="0.00" waitingCount="0" stopTime="0.00" timeLoss="28.29" rerouteNo="0" devices="tripinfo_65" vType="DEFAULT_VEHTYPE" speedFactor="0.98" vaporized=""/>
    <tripinfo id="66" depart="150.00" departLane="E0_0" departPos="5.10" departSpeed="1.29" departDelay="96.00" arrival="262.00" arrivalLane="E3_0" arrivalPos="90.46" arrivalSpeed="28.28" duration="112.00" routeLength="1314.99" waitingTime="0.00" waitingCount="0" stopTime="0.00" timeLoss="28.21" rerouteNo="0" devices="tripinfo_66" vType="DEFAULT_VEHTYPE" speedFactor="0.98" vaporized=""/>
    <tripinfo id="67" depart="153.00" departLane="E0_0" departPos="5.10" departSpeed="0.05" departDelay="99.00" arrival="264.00" arrivalLane="E3_0" arrivalPos="90.46" arrivalSpeed="30.01" duration="111.00" routeLength="1314.99" waitingTime="1.00" waitingCount="1" stopTime="0.00" timeLoss="28.88" rerouteNo="0" devices="tripinfo_67" vType="DEFAULT_VEHTYPE" speedFactor="1.01" vaporized=""/>
    <tripinfo id="68" depart="157.00" departLane="E0_0" departPos="5.10" departSpeed="2.07" departDelay="100.00" arrival="267.00" arrivalLane="E3_0" arrivalPos="90.46" arrivalSpeed="27.21" duration="110.00" routeLength="1314.99" waitingTime="0.00" waitingCount="0" stopTime="0.00" timeLoss="22.51" rerouteNo="0" devices="tripinfo_68" vType="DEFAULT_VEHTYPE" speedFactor="0.94" vaporized=""/>
    <tripinfo id="69" depart="160.00" departLane="E0_0" departPos="5.10" departSpeed="4.35" departDelay="103.00" arrival="281.00" arrivalLane="E3_0" arrivalPos="90.46" arrivalSpeed="24.58" duration="121.00" routeLength="1314.99" waitingTime="0.00" waitingCount="0" stopTime="0.00" timeLoss="21.73" rerouteNo="0" devices="tripinfo_69" vType="DEFAULT_VEHTYPE" speedFactor="0.83" vaporized=""/>
    <tripinfo id="70" depart="162.00" departLane="E0_0" departPos="5.10" departSpeed="1.58" departDelay="102.00" arrival="282.00" arrivalLane="E3_0" arrivalPos="90.46" arrivalSpeed="25.32" duration="120.00" routeLength="1314.99" waitingTime="0.00" waitingCount="0" stopTime="0.00" timeLoss="41.65" rerouteNo="0" devices="tripinfo_70" vType="DEFAULT_VEHTYPE" speedFactor="1.05" vaporized=""/>
    <tripinfo id="71" depart="166.00" departLane="E0_0" departPos="5.10" departSpeed="6.05" departDelay="103.00" arrival="283.00" arrivalLane="E3_0" arrivalPos="90.46" arrivalSpeed="25.37" duration="117.00" routeLength="1314.99" waitingTime="0.00" waitingCount="0" stopTime="0.00" timeLoss="39.48" rerouteNo="0" devices="tripinfo_71" vType="DEFAULT_VEHTYPE" speedFactor="1.06" vaporized=""/>
    <tripinfo id="72" depart="168.00" departLane="E0_0" departPos="5.10" departSpeed="5.84" departDelay="103.00" arrival="286.00" arrivalLane="E3_0" arrivalPos="90.46" arrivalSpeed="25.61" duration="118.00" routeLength="1314.99" waitingTime="0.00" waitingCount="0" stopTime="0.00" timeLoss="22.63" rerouteNo="0" devices="tripinfo_72" vType="DEFAULT_VEHTYPE" speedFactor="0.86" vaporized=""/>
    <tripinfo id="73" depart="170.00" departLane="E0_0" departPos="5.10" departSpeed="5.67" departDelay="103.00" arrival="287.00" arrivalLane="E3_0" arrivalPos="90.46" arrivalSpeed="26.85" duration="117.00" routeLength="1314.99" waitingTime="0.00" waitingCount="0" stopTime="0.00" timeLoss="26.91" rerouteNo="0" devices="tripinfo_73" vType="DEFAULT_VEHTYPE" speedFactor="0.91" vaporized=""/>