<?xml version="1.0" encoding="UTF-8"?>

<!-- generated on 2023-04-28 19:34:14 by Eclipse SUMO sumo Version 1.16.0
<configuration xmlns:xsi="http://www.w3.org/2001/XMLSchema-instance" xsi:noNamespaceSchemaLocation="http://sumo.dlr.de/xsd/sumoConfiguration.xsd">

    <input>
        <net-file value="C:\Users\Local_Man\Desktop\Stolen%20Music\school%20stuff%20for%20college\Semester%2015%20(UH%20Graduate%20School)\COSC%206364%20Nikolaos\SUMO_Project\COSC6364_Project\configurations\maps\Braess_Homebrew_fixed1.net.xml"/>
        <route-files value="./configurations/Rounds/Braess_Homebrew_fixed1.net.xml-test-0/Microscopic_DUE/007/Trips_File_007.rou.xml"/>
    </input>

    <output>
        <summary-output value="./configurations/Rounds/Braess_Homebrew_fixed1.net.xml-test-0/Microscopic_DUE/007/summary.xml"/>
        <tripinfo-output value="./configurations/Rounds/Braess_Homebrew_fixed1.net.xml-test-0/Microscopic_DUE/007/trips.trips.xml"/>
        <statistic-output value="./configurations/Rounds/Braess_Homebrew_fixed1.net.xml-test-0/Microscopic_DUE/007/stats_output.xml"/>
    </output>

    <time>
        <begin value="0"/>
    </time>

    <report>
        <log value="./configurations/Rounds/Braess_Homebrew_fixed1.net.xml-test-0/Microscopic_DUE/007/log.sumo.log"/>
        <no-step-log value="true"/>
    </report>

    <gui_only>
        <quit-on-end value="true"/>
    </gui_only>

</configuration>
-->

<tripinfos xmlns:xsi="http://www.w3.org/2001/XMLSchema-instance" xsi:noNamespaceSchemaLocation="http://sumo.dlr.de/xsd/tripinfo_file.xsd">
    <tripinfo id="2" depart="0.00" departLane="E0_0" departPos="5.10" departSpeed="0.00" departDelay="0.00" arrival="91.00" arrivalLane="E3_0" arrivalPos="90.46" arrivalSpeed="30.93" duration="91.00" routeLength="1314.99" waitingTime="0.00" waitingCount="0" stopTime="0.00" timeLoss="13.81" rerouteNo="0" devices="tripinfo_2" vType="DEFAULT_VEHTYPE" speedFactor="1.06" vaporized=""/>
    <tripinfo id="3" depart="3.00" departLane="E0_0" departPos="5.10" departSpeed="0.00" departDelay="3.00" arrival="107.00" arrivalLane="E3_0" arrivalPos="90.46" arrivalSpeed="26.87" duration="104.00" routeLength="1314.99" waitingTime="0.00" waitingCount="0" stopTime="0.00" timeLoss="15.53" rerouteNo="0" devices="tripinfo_3" vType="DEFAULT_VEHTYPE" speedFactor="0.94" vaporized=""/>
    <tripinfo id="4" depart="6.00" departLane="E0_0" departPos="5.10" departSpeed="0.00" departDelay="5.00" arrival="108.00" arrivalLane="E3_0" arrivalPos="90.46" arrivalSpeed="29.06" duration="102.00" routeLength="1314.99" waitingTime="0.00" waitingCount="0" stopTime="0.00" timeLoss="20.25" rerouteNo="0" devices="tripinfo_4" vType="DEFAULT_VEHTYPE" speedFactor="1.01" vaporized=""/>
    <tripinfo id="5" depart="9.00" departLane="E0_0" departPos="5.10" departSpeed="0.00" departDelay="8.00" arrival="109.00" arrivalLane="E3_0" arrivalPos="90.46" arrivalSpeed="30.12" duration="100.00" routeLength="1314.99" waitingTime="0.00" waitingCount="0" stopTime="0.00" timeLoss="24.03" rerouteNo="0" devices="tripinfo_5" vType="DEFAULT_VEHTYPE" speedFactor="1.08" vaporized=""/>
    <tripinfo id="6" depart="12.00" departLane="E0_0" departPos="5.10" departSpeed="0.00" departDelay="11.00" arrival="111.00" arrivalLane="E3_0" arrivalPos="90.46" arrivalSpeed="30.86" duration="99.00" routeLength="1314.99" waitingTime="0.00" waitingCount="0" stopTime="0.00" timeLoss="19.04" rerouteNo="0" devices="tripinfo_6" vType="DEFAULT_VEHTYPE" speedFactor="1.03" vaporized=""/>
    <tripinfo id="7" depart="15.00" departLane="E0_0" departPos="5.10" departSpeed="0.00" departDelay="12.00" arrival="129.00" arrivalLane="E3_0" arrivalPos="90.46" arrivalSpeed="24.36" duration="114.00" routeLength="1314.99" waitingTime="0.00" waitingCount="0" stopTime="0.00" timeLoss="14.34" rerouteNo="0" devices="tripinfo_7" vType="DEFAULT_VEHTYPE" speedFactor="0.83" vaporized=""/>
    <tripinfo id="8" depart="18.00" departLane="E0_0" departPos="5.10" departSpeed="0.00" departDelay="12.00" arrival="130.00" arrivalLane="E3_0" arrivalPos="90.46" arrivalSpeed="24.85" duration="112.00" routeLength="1314.99" waitingTime="0.00" waitingCount="0" stopTime="0.00" timeLoss="33.39" rerouteNo="0" devices="tripinfo_8" vType="DEFAULT_VEHTYPE" speedFactor="1.05" vaporized=""/>
    <tripinfo id="9" depart="22.00" departLane="E0_0" departPos="5.10" departSpeed="0.00" departDelay="15.00" arrival="132.00" arrivalLane="E3_0" arrivalPos="90.46" arrivalSpeed="26.50" duration="110.00" routeLength="1314.99" waitingTime="0.00" waitingCount="0" stopTime="0.00" timeLoss="16.38" rerouteNo="0" devices="tripinfo_9" vType="DEFAULT_VEHTYPE" speedFactor="0.89" vaporized=""/>
    <tripinfo id="10" depart="25.00" departLane="E0_0" departPos="5.10" departSpeed="0.00" departDelay="18.00" arrival="133.00" arrivalLane="E3_0" arrivalPos="90.46" arrivalSpeed="27.40" duration="108.00" routeLength="1314.99" waitingTime="0.00" waitingCount="0" stopTime="0.00" timeLoss="19.95" rerouteNo="0" devices="tripinfo_10" vType="DEFAULT_VEHTYPE" speedFactor="0.94" vaporized=""/>
    <tripinfo id="11" depart="28.00" departLane="E0_0" departPos="5.10" departSpeed="0.00" departDelay="18.00" arrival="139.00" arrivalLane="E3_0" arrivalPos="90.46" arrivalSpeed="24.99" duration="111.00" routeLength="1314.99" waitingTime="0.00" waitingCount="0" stopTime="0.00" timeLoss="15.53" rerouteNo="0" devices="tripinfo_11" vType="DEFAULT_VEHTYPE" speedFactor="0.86" vaporized=""/>
    <tripinfo id="12" depart="31.00" departLane="E0_0" departPos="5.10" departSpeed="0.00" departDelay="21.00" arrival="141.00" arrivalLane="E3_0" arrivalPos="90.46" arrivalSpeed="30.24" duration="110.00" routeLength="1314.99" waitingTime="0.00" waitingCount="0" stopTime="0.00" timeLoss="34.19" rerouteNo="0" devices="tripinfo_12" vType="DEFAULT_VEHTYPE" speedFactor="1.09" vaporized=""/>
    <tripinfo id="13" depart="34.00" departLane="E0_0" departPos="5.10" departSpeed="0.00" departDelay="24.00" arrival="142.00" arrivalLane="E3_0" arrivalPos="90.46" arrivalSpeed="30.02" duration="108.00" routeLength="1314.99" waitingTime="0.00" waitingCount="0" stopTime="0.00" timeLoss="27.88" rerouteNo="0" devices="tripinfo_13" vType="DEFAULT_VEHTYPE" speedFactor="1.03" vaporized=""/>
    <tripinfo id="14" depart="37.00" departLane="E0_0" departPos="5.10" departSpeed="0.00" departDelay="25.00" arrival="143.00" arrivalLane="E3_0" arrivalPos="90.46" arrivalSpeed="29.80" duration="106.00" routeLength="1314.99" waitingTime="0.00" waitingCount="0" stopTime="0.00" timeLoss="28.01" rerouteNo="0" devices="tripinfo_14" vType="DEFAULT_VEHTYPE" speedFactor="1.05" vaporized=""/>
    <tripinfo id="15" depart="40.00" departLane="E0_0" departPos="5.10" departSpeed="0.00" departDelay="27.00" arrival="145.00" arrivalLane="E3_0" arrivalPos="90.46" arrivalSpeed="31.86" duration="105.00" routeLength="1314.99" waitingTime="0.00" waitingCount="0" stopTime="0.00" timeLoss="31.45" rerouteNo="0" devices="tripinfo_15" vType="DEFAULT_VEHTYPE" speedFactor="1.12" vaporized=""/>
    <tripinfo id="16" depart="43.00" departLane="E0_0" departPos="5.10" departSpeed="0.00" departDelay="30.00" arrival="146.00" arrivalLane="E3_0" arrivalPos="90.46" arrivalSpeed="29.41" duration="103.00" routeLength="1314.99" waitingTime="0.00" waitingCount="0" stopTime="0.00" timeLoss="20.18" rerouteNo="0" devices="tripinfo_16" vType="DEFAULT_VEHTYPE" speedFactor="0.99" vaporized=""/>
    <tripinfo id="17" depart="46.00" departLane="E0_0" departPos="5.10" departSpeed="0.00" departDelay="31.00" arrival="149.00" arrivalLane="E3_0" arrivalPos="90.46" arrivalSpeed="27.31" duration="103.00" routeLength="1314.99" waitingTime="0.00" waitingCount="0" stopTime="0.00" timeLoss="14.10" rerouteNo="0" devices="tripinfo_17" vType="DEFAULT_VEHTYPE" speedFactor="0.93" vaporized=""/>
    <tripinfo id="18" depart="49.00" departLane="E0_0" departPos="5.10" departSpeed="0.00" departDelay="33.00" arrival="157.00" arrivalLane="E3_0" arrivalPos="90.46" arrivalSpeed="25.93" duration="108.00" routeLength="1314.99" waitingTime="0.00" waitingCount="0" stopTime="0.00" timeLoss="14.53" rerouteNo="0" devices="tripinfo_18" vType="DEFAULT_VEHTYPE" speedFactor="0.88" vaporized=""/>
    <tripinfo id="19" depart="52.00" departLane="E0_0" departPos="5.10" departSpeed="0.00" departDelay="36.00" arrival="159.00" arrivalLane="E3_0" arrivalPos="90.46" arrivalSpeed="27.20" duration="107.00" routeLength="1314.99" waitingTime="0.00" waitingCount="0" stopTime="0.00" timeLoss="19.31" rerouteNo="0" devices="tripinfo_19" vType="DEFAULT_VEHTYPE" speedFactor="0.94" vaporized=""/>
    <tripinfo id="20" depart="55.00" departLane="E0_0" departPos="5.10" departSpeed="0.00" departDelay="38.00" arrival="160.00" arrivalLane="E3_0" arrivalPos="90.46" arrivalSpeed="27.78" duration="105.00" routeLength="1314.99" waitingTime="0.00" waitingCount="0" stopTime="0.00" timeLoss="17.19" rerouteNo="0" devices="tripinfo_20" vType="DEFAULT_VEHTYPE" speedFactor="0.94" vaporized=""/>
    <tripinfo id="21" depart="58.00" departLane="E0_0" departPos="5.10" departSpeed="0.00" departDelay="40.00" arrival="161.00" arrivalLane="E3_0" arrivalPos="90.46" arrivalSpeed="28.04" duration="103.00" routeLength="1314.99" waitingTime="0.00" waitingCount="0" stopTime="0.00" timeLoss="32.53" rerouteNo="0" devices="tripinfo_21" vType="DEFAULT_VEHTYPE" speedFactor="1.16" vaporized=""/>
    <tripinfo id="22" depart="61.00" departLane="E0_0" departPos="5.10" departSpeed="0.00" departDelay="43.00" arrival="163.00" arrivalLane="E3_0" arrivalPos="90.46" arrivalSpeed="30.33" duration="102.00" routeLength="1314.99" waitingTime="0.00" waitingCount="0" stopTime="0.00" timeLoss="21.07" rerouteNo="0" devices="tripinfo_22" vType="DEFAULT_VEHTYPE" speedFactor="1.02" vaporized=""/>
    <tripinfo id="23" depart="64.00" departLane="E0_0" departPos="5.10" departSpeed="0.00" departDelay="46.00" arrival="164.00" arrivalLane="E3_0" arrivalPos="90.46" arrivalSpeed="30.16" duration="100.00" routeLength="1314.99" waitingTime="0.00" waitingCount="0" stopTime="0.00" timeLoss="18.85" rerouteNo="0" devices="tripinfo_23" vType="DEFAULT_VEHTYPE" speedFactor="1.01" vaporized=""/>
    <tripinfo id="24" depart="67.00" departLane="E0_0" departPos="5.10" departSpeed="0.00" departDelay="46.00" arrival="167.00" arrivalLane="E3_0" arrivalPos="90.46" arrivalSpeed="28.91" duration="100.00" routeLength="1314.99" waitingTime="0.00" waitingCount="0" stopTime="0.00" timeLoss="15.41" rerouteNo="0" devices="tripinfo_24" vType="DEFAULT_VEHTYPE" speedFactor="0.97" vaporized=""/>
    <tripinfo id="25" depart="70.00" departLane="E0_0" departPos="5.10" departSpeed="0.00" departDelay="48.00" arrival="177.00" arrivalLane="E3_0" arrivalPos="90.46" arrivalSpeed="26.53" duration="107.00" routeLength="1314.99" waitingTime="0.00" waitingCount="0" stopTime="0.00" timeLoss="14.27" rerouteNo="0" devices="tripinfo_25" vType="DEFAULT_VEHTYPE" speedFactor="0.89" vaporized=""/>
    <tripinfo id="27" depart="76.00" departLane="E0_0" departPos="5.10" departSpeed="0.00" departDelay="53.00" arrival="185.00" arrivalLane="E3_0" arrivalPos="90.46" arrivalSpeed="25.48" duration="109.00" routeLength="1314.99" waitingTime="0.00" waitingCount="0" stopTime="0.00" timeLoss="15.32" rerouteNo="0" devices="tripinfo_27" vType="DEFAULT_VEHTYPE" speedFactor="0.87" vaporized=""/>
    <tripinfo id="28" depart="79.00" departLane="E0_0" departPos="5.10" departSpeed="0.00" departDelay="55.00" arrival="187.00" arrivalLane="E3_0" arrivalPos="90.46" arrivalSpeed="26.29" duration="108.00" routeLength="1314.99" waitingTime="0.00" waitingCount="0" stopTime="0.00" timeLoss="18.25" rerouteNo="0" devices="tripinfo_28" vType="DEFAULT_VEHTYPE" speedFactor="0.92" vaporized=""/>
    <tripinfo id="29" depart="82.00" departLane="E0_0" departPos="5.10" departSpeed="0.00" departDelay="57.00" arrival="188.00" arrivalLane="E3_0" arrivalPos="90.46" arrivalSpeed="27.61" duration="106.00" routeLength="1314.99" waitingTime="0.00" waitingCount="0" stopTime="0.00" timeLoss="19.50" rerouteNo="0" devices="tripinfo_29" vType="DEFAULT_VEHTYPE" speedFactor="0.95" vaporized=""/>
    <tripinfo id="30" depart="85.00" departLane="E0_0" departPos="5.10" departSpeed="0.00" departDelay="60.00" arrival="190.00" arrivalLane="E3_0" arrivalPos="90.46" arrivalSpeed="28.99" duration="105.00" routeLength="1314.99" waitingTime="0.00" waitingCount="0" stopTime="0.00" timeLoss="31.98" rerouteNo="0" devices="tripinfo_30" vType="DEFAULT_VEHTYPE" speedFactor="1.13" vaporized=""/>
    <tripinfo id="31" depart="88.00" departLane="E0_0" departPos="5.10" departSpeed="0.00" departDelay="61.00" arrival="191.00" arrivalLane="E3_0" arrivalPos="90.46" arrivalSpeed="27.90" duration="103.00" routeLength="1314.99" waitingTime="0.00" waitingCount="0" stopTime="0.00" timeLoss="15.06" rerouteNo="0" devices="tripinfo_31" vType="DEFAULT_VEHTYPE" speedFactor="0.93" vaporized=""/>
    <tripinfo id="32" depart="91.00" departLane="E0_0" departPos="5.10" departSpeed="0.00" departDelay="64.00" arrival="193.00" arrivalLane="E3_0" arrivalPos="90.46" arrivalSpeed="31.50" duration="102.00" routeLength="1314.99" waitingTime="0.00" waitingCount="0" stopTime="0.00" timeLoss="32.07" rerouteNo="0" devices="tripinfo_32" vType="DEFAULT_VEHTYPE" speedFactor="1.18" vaporized=""/>
    <tripinfo id="33" depart="94.00" departLane="E0_0" departPos="5.10" departSpeed="0.00" departDelay="65.00" arrival="194.00" arrivalLane="E3_0" arrivalPos="90.46" arrivalSpeed="30.92" duration="100.00" routeLength="1314.99" waitingTime="0.00" waitingCount="0" stopTime="0.00" timeLoss="29.00" rerouteNo="0" devices="tripinfo_33" vType="DEFAULT_VEHTYPE" speedFactor="1.15" vaporized=""/>
    <tripinfo id="34" depart="97.00" departLane="E0_0" departPos="5.10" departSpeed="0.00" departDelay="68.00" arrival="197.00" arrivalLane="E3_0" arrivalPos="90.46" arrivalSpeed="29.50" duration="100.00" routeLength="1314.99" waitingTime="0.00" waitingCount="0" stopTime="0.00" timeLoss="17.79" rerouteNo="0" devices="tripinfo_34" vType="DEFAULT_VEHTYPE" speedFactor="1.01" vaporized=""/>
    <tripinfo id="35" depart="100.00" departLane="E0_0" departPos="5.10" departSpeed="0.00" departDelay="71.00" arrival="198.00" arrivalLane="E3_0" arrivalPos="90.46" arrivalSpeed="32.28" duration="98.00" routeLength="1314.99" waitingTime="0.00" waitingCount="0" stopTime="0.00" timeLoss="27.80" rerouteNo="0" devices="tripinfo_35" vType="DEFAULT_VEHTYPE" speedFactor="1.17" vaporized=""/>
    <tripinfo id="37" depart="106.00" departLane="E0_0" departPos="5.10" departSpeed="0.00" departDelay="77.00" arrival="202.00" arrivalLane="E3_0" arrivalPos="90.46" arrivalSpeed="30.53" duration="96.00" routeLength="1314.99" waitingTime="0.00" waitingCount="0" stopTime="0.00" timeLoss="14.78" rerouteNo="0" devices="tripinfo_37" vType="DEFAULT_VEHTYPE" speedFactor="1.02" vaporized=""/>
    <tripinfo id="38" depart="109.00" departLane="E0_0" departPos="5.10" departSpeed="0.00" departDelay="78.00" arrival="208.00" arrivalLane="E3_0" arrivalPos="90.46" arrivalSpeed="28.74" duration="99.00" routeLength="1314.99" waitingTime="0.00" waitingCount="0" stopTime="0.00" timeLoss="14.57" rerouteNo="0" devices="tripinfo_38" vType="DEFAULT_VEHTYPE" speedFactor="0.97" vaporized=""/>
    <tripinfo id="39" depart="112.00" departLane="E0_0" departPos="5.10" departSpeed="0.00" departDelay="81.00" arrival="209.00" arrivalLane="E3_0" arrivalPos="90.46" arrivalSpeed="30.75" duration="97.00" routeLength="1314.99" waitingTime="0.00" waitingCount="0" stopTime="0.00" timeLoss="27.55" rerouteNo="0" devices="tripinfo_39" vType="DEFAULT_VEHTYPE" speedFactor="1.18" vaporized=""/>
    <tripinfo id="40" depart="115.00" departLane="E0_0" departPos="5.10" departSpeed="0.00" departDelay="82.00" arrival="211.00" arrivalLane="E3_0" arrivalPos="90.46" arrivalSpeed="31.44" duration="96.00" routeLength="1314.99" waitingTime="0.00" waitingCount="0" stopTime="0.00" timeLoss="21.27" rerouteNo="0" devices="tripinfo_40" vType="DEFAULT_VEHTYPE" speedFactor="1.10" vaporized=""/>
    <tripinfo id="26" depart="73.00" departLane="E0_0" departPos="5.10" departSpeed="0.00" departDelay="51.00" arrival="221.00" arrivalLane="E3_0" arrivalPos="90.46" arrivalSpeed="24.70" duration="148.00" routeLength="1317.38" waitingTime="23.00" waitingCount="1" stopTime="0.00" timeLoss="44.05" rerouteNo="0" devices="tripinfo_26" vType="DEFAULT_VEHTYPE" speedFactor="0.83" vaporized=""/>
    <tripinfo id="41" depart="118.00" departLane="E0_0" departPos="5.10" departSpeed="0.00" departDelay="84.00" arrival="225.00" arrivalLane="E3_0" arrivalPos="90.46" arrivalSpeed="25.99" duration="107.00" routeLength="1314.99" waitingTime="0.00" waitingCount="0" stopTime="0.00" timeLoss="15.63" rerouteNo="0" devices="tripinfo_41" vType="DEFAULT_VEHTYPE" speedFactor="0.90" vaporized=""/>
    <tripinfo id="42" depart="121.00" departLane="E0_0" departPos="5.10" departSpeed="0.00" departDelay="86.00" arrival="226.00" arrivalLane="E3_0" arrivalPos="90.46" arrivalSpeed="28.41" duration="105.00" routeLength="1314.99" waitingTime="0.00" waitingCount="0" stopTime="0.00" timeLoss="25.29" rerouteNo="0" devices="tripinfo_42" vType="DEFAULT_VEHTYPE" speedFactor="1.03" vaporized=""/>
    <tripinfo id="44" depart="127.00" departLane="E0_0" departPos="5.10" departSpeed="0.00" departDelay="92.00" arrival="228.00" arrivalLane="E3_0" arrivalPos="90.46" arrivalSpeed="28.46" duration="101.00" routeLength="1314.99" waitingTime="0.00" waitingCount="0" stopTime="0.00" timeLoss="25.31" rerouteNo="0" devices="tripinfo_44" vType="DEFAULT_VEHTYPE" speedFactor="1.09" vaporized=""/>
    <tripinfo id="45" depart="130.00" departLane="E0_0" departPos="5.10" departSpeed="0.00" departDelay="94.00" arrival="229.00" arrivalLane="E3_0" arrivalPos="90.46" arrivalSpeed="29.67" duration="99.00" routeLength="1314.99" waitingTime="0.00" waitingCount="0" stopTime="0.00" timeLoss="19.72" rerouteNo="0" devices="tripinfo_45" vType="DEFAULT_VEHTYPE" speedFactor="1.04" vaporized=""/>
    <tripinfo id="46" depart="133.00" departLane="E0_0" departPos="5.10" departSpeed="0.00" departDelay="96.00" arrival="230.00" arrivalLane="E3_0" arrivalPos="90.46" arrivalSpeed="29.46" duration="97.00" routeLength="1314.99" waitingTime="0.00" waitingCount="0" stopTime="0.00" timeLoss="18.67" rerouteNo="0" devices="tripinfo_46" vType="DEFAULT_VEHTYPE" speedFactor="1.04" vaporized=""/>
    <tripinfo id="47" depart="136.00" departLane="E0_0" departPos="5.10" departSpeed="0.00" departDelay="97.00" arrival="232.00" arrivalLane="E3_0" arrivalPos="90.46" arrivalSpeed="31.50" duration="96.00" routeLength="1314.99" waitingTime="0.00" waitingCount="0" stopTime="0.00" timeLoss="20.23" rerouteNo="0" devices="tripinfo_47" vType="DEFAULT_VEHTYPE" speedFactor="1.09" vaporized=""/>
    <tripinfo id="48" depart="139.00" departLane="E0_0" departPos="5.10" departSpeed="0.00" departDelay="99.00" arrival="236.00" arrivalLane="E3_0" arrivalPos="90.46" arrivalSpeed="29.64" duration="97.00" routeLength="1314.99" waitingTime="0.00" waitingCount="0" stopTime="0.00" timeLoss="14.49" rerouteNo="0" devices="tripinfo_48" vType="DEFAULT_VEHTYPE" speedFactor="1.00" vaporized=""/>
    <tripinfo id="36" depart="103.00" departLane="E0_0" departPos="5.10" departSpeed="0.00" departDelay="74.00" arrival="246.00" arrivalLane="E3_0" arrivalPos="90.46" arrivalSpeed="25.97" duration="143.00" routeLength="1317.38" waitingTime="30.00" waitingCount="2" stopTime="0.00" timeLoss="56.49" rerouteNo="0" devices="tripinfo_36" vType="DEFAULT_VEHTYPE" speedFactor="0.99" vaporized=""/>
    <tripinfo id="49" depart="142.00" departLane="E0_0" departPos="5.10" departSpeed="0.00" departDelay="102.00" arrival="247.00" arrivalLane="E3_0" arrivalPos="90.46" arrivalSpeed="25.75" duration="105.00" routeLength="1314.99" waitingTime="0.00" waitingCount="0" stopTime="0.00" timeLoss="14.15" rerouteNo="0" devices="tripinfo_49" vType="DEFAULT_VEHTYPE" speedFactor="0.90" vaporized=""/>
    <tripinfo id="50" depart="145.00" departLane="E0_0" departPos="5.10" departSpeed="0.00" departDelay="105.00" arrival="253.00" arrivalLane="E3_0" arrivalPos="90.46" arrivalSpeed="25.80" duration="108.00" routeLength="1314.99" waitingTime="0.00" waitingCount="0" stopTime="0.00" timeLoss="14.18" rerouteNo="0" devices="tripinfo_50" vType="DEFAULT_VEHTYPE" speedFactor="0.88" vaporized=""/>
    <tripinfo id="51" depart="148.00" departLane="E0_0" departPos="5.10" departSpeed="0.00" departDelay="107.00" arrival="260.00" arrivalLane="E3_0" arrivalPos="90.46" arrivalSpeed="25.08" duration="112.00" routeLength="1314.99" waitingTime="0.00" waitingCount="0" stopTime="0.00" timeLoss="15.74" rerouteNo="0" devices="tripinfo_51" vType="DEFAULT_VEHTYPE" speedFactor="0.85" vaporized=""/>
    <tripinfo id="52" depart="151.00" departLane="E0_0" departPos="5.10" departSpeed="0.00" departDelay="110.00" arrival="262.00" arrivalLane="E3_0" arrivalPos="90.46" arrivalSpeed="24.68" duration="111.00" routeLength="1314.99" waitingTime="0.00" waitingCount="0" stopTime="0.00" timeLoss="15.00" rerouteNo="0" devices="tripinfo_52" vType="DEFAULT_VEHTYPE" speedFactor="0.85" vaporized=""/>
    <tripinfo id="53" depart="154.00" departLane="E0_0" departPos="5.10" departSpeed="0.00" departDelay="111.00" arrival="263.00" arrivalLane="E3_0" arrivalPos="90.46" arrivalSpeed="26.59" duration="109.00" routeLength="1314.99" waitingTime="0.00" waitingCount="0" stopTime="0.00" timeLoss="39.02" rerouteNo="0" devices="tripinfo_53" vType="DEFAULT_VEHTYPE" speedFactor="1.17" vaporized=""/>
    <tripinfo id="54" depart="157.00" departLane="E0_0" departPos="5.10" departSpeed="0.00" departDelay="114.00" arrival="265.00" arrivalLane="E3_0" arrivalPos="90.46" arrivalSpeed="29.26" duration="108.00" routeLength="1314.99" waitingTime="0.00" waitingCount="0" stopTime="0.00" timeLoss="26.87" rerouteNo="0" devices="tripinfo_54" vType="DEFAULT_VEHTYPE" speedFactor="1.02" vaporized=""/>
    <tripinfo id="57" depart="166.00" departLane="E0_0" departPos="5.10" departSpeed="0.00" departDelay="122.00" arrival="266.00" arrivalLane="E3_0" arrivalPos="90.46" arrivalSpeed="29.29" duration="100.00" routeLength="1314.99" waitingTime="0.00" waitingCount="0" stopTime="0.00" timeLoss="17.41" rerouteNo="0" devices="tripinfo_57" vType="DEFAULT_VEHTYPE" speedFactor="1.00" vaporized=""/>
    <tripinfo id="58" depart="169.00" departLane="E0_0" departPos="5.10" departSpeed="0.00" departDelay="120.00" arrival="276.00" arrivalLane="E3_0" arrivalPos="90.46" arrivalSpeed="26.78" duration="107.00" routeLength="1314.99" waitingTime="0.00" waitingCount="0" stopTime="0.00" timeLoss="15.10" rerouteNo="0" devices="tripinfo_58" vType="DEFAULT_VEHTYPE" speedFactor="0.90" vaporized=""/>
    <tripinfo id="59" depart="172.00" departLane="E0_0" departPos="5.10" departSpeed="0.00" departDelay="122.00" arrival="277.00" arrivalLane="E3_0" arrivalPos="90.46" arrivalSpeed="27.61" duration="105.00" routeLength="1314.99" waitingTime="0.00" waitingCount="0" stopTime="0.00" timeLoss="32.96" rerouteNo="0" devices="tripinfo_59" vType="DEFAULT_VEHTYPE" speedFactor="1.14" vaporized=""/>
    <tripinfo id="60" depart="175.00" departLane="E0_0" departPos="5.10" departSpeed="0.00" departDelay="125.00" arrival="278.00" arrivalLane="E3_0" arrivalPos="90.46" arrivalSpeed="27.91" duration="103.00" routeLength="1314.99" waitingTime="0.00" waitingCount="0" stopTime="0.00" timeLoss="23.12" rerouteNo="0" devices="tripinfo_60" vType="DEFAULT_VEHTYPE" speedFactor="1.02" vaporized=""/>
    <tripinfo id="62" depart="181.00" departLane="E0_0" departPos="5.10" departSpeed="0.00" departDelay="130.00" arrival="280.00" arrivalLane="E3_0" arrivalPos="90.46" arrivalSpeed="30.22" duration="99.00" routeLength="1314.99" waitingTime="0.00" waitingCount="0" stopTime="0.00" timeLoss="22.80" rerouteNo="0" devices="tripinfo_62" vType="DEFAULT_VEHTYPE" speedFactor="1.08" vaporized=""/>
    <tripinfo id="63" depart="184.00" departLane="E0_0" departPos="5.10" departSpeed="0.00" departDelay="132.00" arrival="281.00" arrivalLane="E3_0" arrivalPos="90.46" arrivalSpeed="29.39" duration="97.00" routeLength="1314.99" waitingTime="0.00" waitingCount="0" stopTime="0.00" timeLoss="23.67" rerouteNo="0" devices="tripinfo_63" vType="DEFAULT_VEHTYPE" speedFactor="1.12" vaporized=""/>
    <tripinfo id="64" depart="187.00" departLane="E0_0" departPos="5.10" departSpeed="0.00" departDelay="133.00" arrival="283.00" arrivalLane="E3_0" arrivalPos="90.46" arrivalSpeed="29.49" duration="96.00" routeLength="1314.99" waitingTime="0.00" waitingCount="0" stopTime="0.00" timeLoss="15.82" rerouteNo="0" devices="tripinfo_64" vType="DEFAULT_VEHTYPE" speedFactor="1.02" vaporized=""/>
    <tripinfo id="65" depart="190.00" departLane="E0_0" departPos="5.10" departSpeed="0.00" departDelay="136.00" arrival="289.00" arrivalLane="E3_0" arrivalPos="90.46" arrivalSpeed="28.97" duration="99.00" routeLength="1314.99" waitingTime="0.00" waitingCount="0" stopTime="0.00" timeLoss="15.56" rerouteNo="0" devices="tripinfo_65" vType="DEFAULT_VEHTYPE" speedFactor="0.99" vaporized=""/>
    <tripinfo id="66" depart="193.00" departLane="E0_0" departPos="5.10" departSpeed="0.00" departDelay="139.00" arrival="295.00" arrivalLane="E3_0" arrivalPos="90.46" arrivalSpeed="28.13" duration="102.00" routeLength="1314.99" waitingTime="0.00" waitingCount="0" stopTime="0.00" timeLoss="14.58" rerouteNo="0" devices="tripinfo_66" vType="DEFAULT_VEHTYPE" speedFactor="0.94" vaporized=""/>
    <tripinfo id="67" depart="196.00" departLane="E0_0" departPos="5.10" departSpeed="0.00" departDelay="142.00" arrival="304.00" arrivalLane="E3_0" arrivalPos="90.46" arrivalSpeed="25.43" duration="108.00" routeLength="1314.99" waitingTime="0.00" waitingCount="0" stopTime="0.00" timeLoss="15.23" rerouteNo="0" devices="tripinfo_67" vType="DEFAULT_VEHTYPE" speedFactor="0.88" vaporized=""/>
    <tripinfo id="69" depart="202.00" departLane="E0_0" departPos="5.10" departSpeed="0.00" departDelay="145.00" arrival="307.00" arrivalLane="E3_0" arrivalPos="90.46" arrivalSpeed="26.39" duration="105.00" routeLength="1314.99" waitingTime="0.00" waitingCount="0" stopTime="0.00" timeLoss="14.90" rerouteNo="0" devices="tripinfo_69" vType="DEFAULT_VEHTYPE" speedFactor="0.91" vaporized=""/>
    <tripinfo id="70" depart="205.00" departLane="E0_0" departPos="5.10" departSpeed="0.00" departDelay="145.00" arrival="308.00" arrivalLane="E3_0" arrivalPos="90.46" arrivalSpeed="28.47" duration="103.00" routeLength="1314.99" waitingTime="0.00" waitingCount="0" stopTime="0.00" timeLoss="24.16" rerouteNo="0" devices="tripinfo_70" vType="DEFAULT_VEHTYPE" speedFactor="1.04" vaporized=""/>
    <tripinfo id="72" depart="211.00" departLane="E0_0" departPos="5.10" departSpeed="0.00" departDelay="146.00" arrival="310.00" arrivalLane="E3_0" arrivalPos="90.46" arrivalSpeed="29.28" duration="99.00" routeLength="1314.99" waitingTime="0.00" waitingCount="0" stopTime="0.00" timeLoss="18.41" rerouteNo="0" devices="tripinfo_72" vType="DEFAULT_VEHTYPE" speedFactor="1.02" vaporized=""/>
    <tripinfo id="73" depart="214.00" departLane="E0_0" departPos="5.10" departSpeed="0.00" departDelay="147.00" arrival="313.00" arrivalLane="E3_0" arrivalPos="90.46" arrivalSpeed="28.32" duration="99.00" routeLength="1314.99" waitingTime="0.00" waitingCount="0" stopTime="0.00" timeLoss="14.64" rerouteNo="0" devices="tripinfo_73" vType="DEFAULT_VEHTYPE" speedFactor="0.97" vaporized=""/>
    <tripinfo id="74" depart="217.00" departLane="E0_0" departPos="5.10" departSpeed="0.00" departDelay="145.00" arrival="319.00" arrivalLane="E3_0" arrivalPos="90.46" arrivalSpeed="27.41" duration="102.00" routeLength="1314.99" waitingTime="0.00" waitingCount="0" stopTime="0.00" timeLoss="14.38" rerouteNo="0" devices="tripinfo_74" vType="DEFAULT_VEHTYPE" speedFactor="0.94" vaporized=""/>
    <tripinfo id="75" depart="220.00" departLane="E0_0" departPos="5.10" departSpeed="0.00" departDelay="148.00" arrival="320.00" arrivalLane="E3_0" arrivalPos="90.46" arrivalSpeed="29.12" duration="100.00" routeLength="1314.99" waitingTime="0.00" waitingCount="0" stopTime="0.00" timeLoss="22.36" rerouteNo="0" devices="tripinfo_75" vType="DEFAULT_VEHTYPE" speedFactor="1.06" vaporized=""/>
    <tripinfo id="76" depart="223.00" departLane="E0_0" departPos="5.10" departSpeed="0.00" departDelay="150.00" arrival="324.00" arrivalLane="E3_0" arrivalPos="90.46" arrivalSpeed="27.86" duration="101.00" routeLength="1314.99" waitingTime="0.00" waitingCount="0" stopTime="0.00" timeLoss="14.79" rerouteNo="0" devices="tripinfo_76" vType="DEFAULT_VEHTYPE" speedFactor="0.96" vaporized=""/>
    <tripinfo id="77" depart="226.00" departLane="E0_0" departPos="5.10" departSpeed="0.00" departDelay="153.00" arrival="325.00" arrivalLane="E3_0" arrivalPos="90.46" arrivalSpeed="28.31" duration="99.00" routeLength="1314.99" waitingTime="0.00" waitingCount="0" stopTime="0.00" timeLoss="15.69" rerouteNo="0" devices="tripinfo_77" vType="DEFAULT_VEHTYPE" speedFactor="0.98" vaporized=""/>
    <tripinfo id="78" depart="229.00" departLane="E0_0" departPos="5.10" departSpeed="0.00" departDelay="156.00" arrival="327.00" arrivalLane="E3_0" arrivalPos="90.46" arrivalSpeed="29.79" duration="98.00" routeLength="1314.99" waitingTime="0.00" waitingCount="0" stopTime="0.00" timeLoss="17.94" rerouteNo="0" devices="tripinfo_78" vType="DEFAULT_VEHTYPE" speedFactor="1.03" vaporized=""/>
    <tripinfo id="79" depart="232.00" departLane="E0_0" departPos="5.10" departSpeed="0.00" departDelay="158.00" arrival="330.00" arrivalLane="E3_0" arrivalPos="90.46" arrivalSpeed="28.88" duration="98.00" routeLength="1314.99" waitingTime="0.00" waitingCount="0" stopTime="0.00" timeLoss="14.79" rerouteNo="0" devices="tripinfo_79" vType="DEFAULT_VEHTYPE" speedFactor="0.98" vaporized=""/>