<?xml version="1.0" encoding="UTF-8"?>

<!-- generated on 2023-04-30 11:00:03 by Eclipse SUMO sumo Version 1.16.0
<configuration xmlns:xsi="http://www.w3.org/2001/XMLSchema-instance" xsi:noNamespaceSchemaLocation="http://sumo.dlr.de/xsd/sumoConfiguration.xsd">

    <input>
        <net-file value="C:\Users\Local_Man\Desktop\Stolen%20Music\school%20stuff%20for%20college\Semester%2015%20(UH%20Graduate%20School)\COSC%206364%20Nikolaos\SUMO_Project\COSC6364_Project\configurations\maps\Braess_Homebrew_fixed1.net.xml"/>
        <route-files value="./configurations/Rounds/Braess_Homebrew_fixed1.net.xml-test-4/Microscopic_DUE/018/Trips_File_018.rou.xml"/>
    </input>

    <output>
        <summary-output value="./configurations/Rounds/Braess_Homebrew_fixed1.net.xml-test-4/Microscopic_DUE/018/summary.xml"/>
        <tripinfo-output value="./configurations/Rounds/Braess_Homebrew_fixed1.net.xml-test-4/Microscopic_DUE/018/trips.trips.xml"/>
        <statistic-output value="./configurations/Rounds/Braess_Homebrew_fixed1.net.xml-test-4/Microscopic_DUE/018/stats_output.xml"/>
    </output>

    <time>
        <begin value="0"/>
    </time>

    <report>
        <log value="./configurations/Rounds/Braess_Homebrew_fixed1.net.xml-test-4/Microscopic_DUE/018/log.sumo.log"/>
        <no-step-log value="true"/>
    </report>

    <gui_only>
        <quit-on-end value="true"/>
    </gui_only>

</configuration>
-->

<tripinfos xmlns:xsi="http://www.w3.org/2001/XMLSchema-instance" xsi:noNamespaceSchemaLocation="http://sumo.dlr.de/xsd/tripinfo_file.xsd">
    <tripinfo id="2" depart="4.00" departLane="E0_0" departPos="5.10" departSpeed="0.00" departDelay="0.00" arrival="95.00" arrivalLane="E3_0" arrivalPos="90.46" arrivalSpeed="30.93" duration="91.00" routeLength="1314.99" waitingTime="0.00" waitingCount="0" stopTime="0.00" timeLoss="13.81" rerouteNo="0" devices="tripinfo_2" vType="DEFAULT_VEHTYPE" speedFactor="1.06" vaporized=""/>
    <tripinfo id="3" depart="7.00" departLane="E0_0" departPos="5.10" departSpeed="0.00" departDelay="3.00" arrival="111.00" arrivalLane="E3_0" arrivalPos="90.46" arrivalSpeed="26.87" duration="104.00" routeLength="1314.99" waitingTime="0.00" waitingCount="0" stopTime="0.00" timeLoss="15.53" rerouteNo="0" devices="tripinfo_3" vType="DEFAULT_VEHTYPE" speedFactor="0.94" vaporized=""/>
    <tripinfo id="4" depart="10.00" departLane="E0_0" departPos="5.10" departSpeed="0.00" departDelay="0.00" arrival="112.00" arrivalLane="E3_0" arrivalPos="90.46" arrivalSpeed="29.06" duration="102.00" routeLength="1314.99" waitingTime="0.00" waitingCount="0" stopTime="0.00" timeLoss="20.25" rerouteNo="0" devices="tripinfo_4" vType="DEFAULT_VEHTYPE" speedFactor="1.01" vaporized=""/>
    <tripinfo id="5" depart="13.00" departLane="E0_0" departPos="5.10" departSpeed="0.00" departDelay="3.00" arrival="113.00" arrivalLane="E3_0" arrivalPos="90.46" arrivalSpeed="30.12" duration="100.00" routeLength="1314.99" waitingTime="0.00" waitingCount="0" stopTime="0.00" timeLoss="24.03" rerouteNo="0" devices="tripinfo_5" vType="DEFAULT_VEHTYPE" speedFactor="1.08" vaporized=""/>
    <tripinfo id="6" depart="16.00" departLane="E0_0" departPos="5.10" departSpeed="0.00" departDelay="6.00" arrival="115.00" arrivalLane="E3_0" arrivalPos="90.46" arrivalSpeed="30.86" duration="99.00" routeLength="1314.99" waitingTime="0.00" waitingCount="0" stopTime="0.00" timeLoss="19.04" rerouteNo="0" devices="tripinfo_6" vType="DEFAULT_VEHTYPE" speedFactor="1.03" vaporized=""/>
    <tripinfo id="7" depart="19.00" departLane="E0_0" departPos="5.10" departSpeed="0.00" departDelay="8.00" arrival="133.00" arrivalLane="E3_0" arrivalPos="90.46" arrivalSpeed="24.36" duration="114.00" routeLength="1314.99" waitingTime="0.00" waitingCount="0" stopTime="0.00" timeLoss="14.22" rerouteNo="0" devices="tripinfo_7" vType="DEFAULT_VEHTYPE" speedFactor="0.83" vaporized=""/>
    <tripinfo id="8" depart="22.00" departLane="E0_0" departPos="5.10" departSpeed="0.00" departDelay="11.00" arrival="134.00" arrivalLane="E3_0" arrivalPos="90.46" arrivalSpeed="24.85" duration="112.00" routeLength="1314.99" waitingTime="0.00" waitingCount="0" stopTime="0.00" timeLoss="33.25" rerouteNo="0" devices="tripinfo_8" vType="DEFAULT_VEHTYPE" speedFactor="1.05" vaporized=""/>
    <tripinfo id="9" depart="26.00" departLane="E0_0" departPos="5.10" departSpeed="0.00" departDelay="12.00" arrival="135.00" arrivalLane="E3_0" arrivalPos="90.46" arrivalSpeed="25.48" duration="109.00" routeLength="1314.99" waitingTime="0.00" waitingCount="0" stopTime="0.00" timeLoss="16.31" rerouteNo="0" devices="tripinfo_9" vType="DEFAULT_VEHTYPE" speedFactor="0.89" vaporized=""/>
    <tripinfo id="10" depart="29.00" departLane="E0_0" departPos="5.10" departSpeed="0.00" departDelay="12.00" arrival="137.00" arrivalLane="E3_0" arrivalPos="90.46" arrivalSpeed="27.56" duration="108.00" routeLength="1314.99" waitingTime="0.00" waitingCount="0" stopTime="0.00" timeLoss="19.93" rerouteNo="0" devices="tripinfo_10" vType="DEFAULT_VEHTYPE" speedFactor="0.94" vaporized=""/>
    <tripinfo id="11" depart="32.00" departLane="E0_0" departPos="5.10" departSpeed="0.00" departDelay="14.00" arrival="144.00" arrivalLane="E3_0" arrivalPos="90.46" arrivalSpeed="25.59" duration="112.00" routeLength="1314.99" waitingTime="0.00" waitingCount="0" stopTime="0.00" timeLoss="15.80" rerouteNo="0" devices="tripinfo_11" vType="DEFAULT_VEHTYPE" speedFactor="0.86" vaporized=""/>
    <tripinfo id="12" depart="35.00" departLane="E0_0" departPos="5.10" departSpeed="0.00" departDelay="17.00" arrival="145.00" arrivalLane="E3_0" arrivalPos="90.46" arrivalSpeed="26.76" duration="110.00" routeLength="1314.99" waitingTime="0.00" waitingCount="0" stopTime="0.00" timeLoss="34.57" rerouteNo="0" devices="tripinfo_12" vType="DEFAULT_VEHTYPE" speedFactor="1.09" vaporized=""/>
    <tripinfo id="13" depart="38.00" departLane="E0_0" departPos="5.10" departSpeed="0.00" departDelay="19.00" arrival="146.00" arrivalLane="E3_0" arrivalPos="90.46" arrivalSpeed="27.54" duration="108.00" routeLength="1314.99" waitingTime="0.00" waitingCount="0" stopTime="0.00" timeLoss="28.28" rerouteNo="0" devices="tripinfo_13" vType="DEFAULT_VEHTYPE" speedFactor="1.03" vaporized=""/>
    <tripinfo id="14" depart="41.00" departLane="E0_0" departPos="5.10" departSpeed="0.00" departDelay="22.00" arrival="148.00" arrivalLane="E3_0" arrivalPos="90.46" arrivalSpeed="28.69" duration="107.00" routeLength="1314.99" waitingTime="0.00" waitingCount="0" stopTime="0.00" timeLoss="28.31" rerouteNo="0" devices="tripinfo_14" vType="DEFAULT_VEHTYPE" speedFactor="1.05" vaporized=""/>
    <tripinfo id="15" depart="44.00" departLane="E0_0" departPos="5.10" departSpeed="0.00" departDelay="24.00" arrival="149.00" arrivalLane="E3_0" arrivalPos="90.46" arrivalSpeed="29.44" duration="105.00" routeLength="1314.99" waitingTime="0.00" waitingCount="0" stopTime="0.00" timeLoss="31.70" rerouteNo="0" devices="tripinfo_15" vType="DEFAULT_VEHTYPE" speedFactor="1.12" vaporized=""/>
    <tripinfo id="16" depart="47.00" departLane="E0_0" departPos="5.10" departSpeed="0.00" departDelay="27.00" arrival="151.00" arrivalLane="E3_0" arrivalPos="90.46" arrivalSpeed="29.20" duration="104.00" routeLength="1314.99" waitingTime="0.00" waitingCount="0" stopTime="0.00" timeLoss="20.38" rerouteNo="0" devices="tripinfo_16" vType="DEFAULT_VEHTYPE" speedFactor="0.99" vaporized=""/>
    <tripinfo id="17" depart="50.00" departLane="E0_0" departPos="5.10" departSpeed="0.00" departDelay="28.00" arrival="153.00" arrivalLane="E3_0" arrivalPos="90.46" arrivalSpeed="27.52" duration="103.00" routeLength="1314.99" waitingTime="0.00" waitingCount="0" stopTime="0.00" timeLoss="14.18" rerouteNo="0" devices="tripinfo_17" vType="DEFAULT_VEHTYPE" speedFactor="0.93" vaporized=""/>
    <tripinfo id="18" depart="53.00" departLane="E0_0" departPos="5.10" departSpeed="0.00" departDelay="30.00" arrival="161.00" arrivalLane="E3_0" arrivalPos="90.46" arrivalSpeed="25.52" duration="108.00" routeLength="1314.99" waitingTime="0.00" waitingCount="0" stopTime="0.00" timeLoss="14.11" rerouteNo="0" devices="tripinfo_18" vType="DEFAULT_VEHTYPE" speedFactor="0.88" vaporized=""/>
    <tripinfo id="19" depart="56.00" departLane="E0_0" departPos="5.10" departSpeed="0.00" departDelay="32.00" arrival="162.00" arrivalLane="E3_0" arrivalPos="90.46" arrivalSpeed="28.02" duration="106.00" routeLength="1314.99" waitingTime="0.00" waitingCount="0" stopTime="0.00" timeLoss="18.65" rerouteNo="0" devices="tripinfo_19" vType="DEFAULT_VEHTYPE" speedFactor="0.94" vaporized=""/>
    <tripinfo id="20" depart="59.00" departLane="E0_0" departPos="5.10" departSpeed="0.00" departDelay="35.00" arrival="164.00" arrivalLane="E3_0" arrivalPos="90.46" arrivalSpeed="27.08" duration="105.00" routeLength="1314.99" waitingTime="0.00" waitingCount="0" stopTime="0.00" timeLoss="16.60" rerouteNo="0" devices="tripinfo_20" vType="DEFAULT_VEHTYPE" speedFactor="0.94" vaporized=""/>
    <tripinfo id="21" depart="62.00" departLane="E0_0" departPos="5.10" departSpeed="0.00" departDelay="37.00" arrival="165.00" arrivalLane="E3_0" arrivalPos="90.46" arrivalSpeed="29.29" duration="103.00" routeLength="1314.99" waitingTime="0.00" waitingCount="0" stopTime="0.00" timeLoss="31.97" rerouteNo="0" devices="tripinfo_21" vType="DEFAULT_VEHTYPE" speedFactor="1.16" vaporized=""/>
    <tripinfo id="22" depart="65.00" departLane="E0_0" departPos="5.10" departSpeed="0.00" departDelay="39.00" arrival="166.00" arrivalLane="E3_0" arrivalPos="90.46" arrivalSpeed="29.48" duration="101.00" routeLength="1314.99" waitingTime="0.00" waitingCount="0" stopTime="0.00" timeLoss="20.39" rerouteNo="0" devices="tripinfo_22" vType="DEFAULT_VEHTYPE" speedFactor="1.02" vaporized=""/>
    <tripinfo id="23" depart="68.00" departLane="E0_0" departPos="5.10" departSpeed="0.00" departDelay="39.00" arrival="168.00" arrivalLane="E3_0" arrivalPos="90.46" arrivalSpeed="29.74" duration="100.00" routeLength="1314.99" waitingTime="0.00" waitingCount="0" stopTime="0.00" timeLoss="18.23" rerouteNo="0" devices="tripinfo_23" vType="DEFAULT_VEHTYPE" speedFactor="1.01" vaporized=""/>
    <tripinfo id="24" depart="71.00" departLane="E0_0" departPos="5.10" departSpeed="0.00" departDelay="42.00" arrival="171.00" arrivalLane="E3_0" arrivalPos="90.46" arrivalSpeed="28.73" duration="100.00" routeLength="1314.99" waitingTime="0.00" waitingCount="0" stopTime="0.00" timeLoss="14.95" rerouteNo="0" devices="tripinfo_24" vType="DEFAULT_VEHTYPE" speedFactor="0.97" vaporized=""/>
    <tripinfo id="25" depart="74.00" departLane="E0_0" departPos="5.10" departSpeed="0.00" departDelay="44.00" arrival="182.00" arrivalLane="E3_0" arrivalPos="90.46" arrivalSpeed="26.67" duration="108.00" routeLength="1314.99" waitingTime="0.00" waitingCount="0" stopTime="0.00" timeLoss="14.89" rerouteNo="0" devices="tripinfo_25" vType="DEFAULT_VEHTYPE" speedFactor="0.89" vaporized=""/>
    <tripinfo id="26" depart="77.00" departLane="E0_0" departPos="5.10" departSpeed="0.00" departDelay="45.00" arrival="192.00" arrivalLane="E3_0" arrivalPos="90.46" arrivalSpeed="24.62" duration="115.00" routeLength="1314.99" waitingTime="0.00" waitingCount="0" stopTime="0.00" timeLoss="15.15" rerouteNo="0" devices="tripinfo_26" vType="DEFAULT_VEHTYPE" speedFactor="0.83" vaporized=""/>
    <tripinfo id="27" depart="80.00" departLane="E0_0" departPos="5.10" departSpeed="0.00" departDelay="48.00" arrival="193.00" arrivalLane="E3_0" arrivalPos="90.46" arrivalSpeed="25.17" duration="113.00" routeLength="1314.99" waitingTime="0.00" waitingCount="0" stopTime="0.00" timeLoss="18.71" rerouteNo="0" devices="tripinfo_27" vType="DEFAULT_VEHTYPE" speedFactor="0.87" vaporized=""/>
    <tripinfo id="28" depart="83.00" departLane="E0_0" departPos="5.10" departSpeed="0.00" departDelay="51.00" arrival="195.00" arrivalLane="E3_0" arrivalPos="90.46" arrivalSpeed="25.63" duration="112.00" routeLength="1314.99" waitingTime="0.00" waitingCount="0" stopTime="0.00" timeLoss="21.79" rerouteNo="0" devices="tripinfo_28" vType="DEFAULT_VEHTYPE" speedFactor="0.92" vaporized=""/>
    <tripinfo id="29" depart="86.00" departLane="E0_0" departPos="5.10" departSpeed="0.00" departDelay="53.00" arrival="196.00" arrivalLane="E3_0" arrivalPos="90.46" arrivalSpeed="26.75" duration="110.00" routeLength="1314.99" waitingTime="0.00" waitingCount="0" stopTime="0.00" timeLoss="23.13" rerouteNo="0" devices="tripinfo_29" vType="DEFAULT_VEHTYPE" speedFactor="0.95" vaporized=""/>
    <tripinfo id="30" depart="89.00" departLane="E0_0" departPos="5.10" departSpeed="0.00" departDelay="55.00" arrival="198.00" arrivalLane="E3_0" arrivalPos="90.46" arrivalSpeed="28.54" duration="109.00" routeLength="1314.99" waitingTime="0.00" waitingCount="0" stopTime="0.00" timeLoss="35.81" rerouteNo="0" devices="tripinfo_30" vType="DEFAULT_VEHTYPE" speedFactor="1.13" vaporized=""/>
    <tripinfo id="31" depart="92.00" departLane="E0_0" departPos="5.10" departSpeed="0.00" departDelay="58.00" arrival="199.00" arrivalLane="E3_0" arrivalPos="90.46" arrivalSpeed="27.29" duration="107.00" routeLength="1314.99" waitingTime="0.00" waitingCount="0" stopTime="0.00" timeLoss="18.51" rerouteNo="0" devices="tripinfo_31" vType="DEFAULT_VEHTYPE" speedFactor="0.93" vaporized=""/>
    <tripinfo id="32" depart="95.00" departLane="E0_0" departPos="5.10" departSpeed="0.00" departDelay="60.00" arrival="200.00" arrivalLane="E3_0" arrivalPos="90.46" arrivalSpeed="27.91" duration="105.00" routeLength="1314.99" waitingTime="0.00" waitingCount="0" stopTime="0.00" timeLoss="35.30" rerouteNo="0" devices="tripinfo_32" vType="DEFAULT_VEHTYPE" speedFactor="1.18" vaporized=""/>
    <tripinfo id="33" depart="98.00" departLane="E0_0" departPos="5.10" departSpeed="0.00" departDelay="63.00" arrival="202.00" arrivalLane="E3_0" arrivalPos="90.46" arrivalSpeed="31.37" duration="104.00" routeLength="1314.99" waitingTime="0.00" waitingCount="0" stopTime="0.00" timeLoss="32.19" rerouteNo="0" devices="tripinfo_33" vType="DEFAULT_VEHTYPE" speedFactor="1.15" vaporized=""/>
    <tripinfo id="34" depart="101.00" departLane="E0_0" departPos="5.10" departSpeed="0.00" departDelay="65.00" arrival="203.00" arrivalLane="E3_0" arrivalPos="90.46" arrivalSpeed="29.56" duration="102.00" routeLength="1314.99" waitingTime="0.00" waitingCount="0" stopTime="0.00" timeLoss="20.32" rerouteNo="0" devices="tripinfo_34" vType="DEFAULT_VEHTYPE" speedFactor="1.01" vaporized=""/>
    <tripinfo id="35" depart="104.00" departLane="E0_0" departPos="5.10" departSpeed="0.00" departDelay="65.00" arrival="205.00" arrivalLane="E3_0" arrivalPos="90.46" arrivalSpeed="30.47" duration="101.00" routeLength="1314.99" waitingTime="0.00" waitingCount="0" stopTime="0.00" timeLoss="30.29" rerouteNo="0" devices="tripinfo_35" vType="DEFAULT_VEHTYPE" speedFactor="1.17" vaporized=""/>
    <tripinfo id="36" depart="108.00" departLane="E0_0" departPos="5.10" departSpeed="0.00" departDelay="68.00" arrival="207.00" arrivalLane="E3_0" arrivalPos="90.46" arrivalSpeed="29.03" duration="99.00" routeLength="1314.99" waitingTime="0.00" waitingCount="0" stopTime="0.00" timeLoss="16.21" rerouteNo="0" devices="tripinfo_36" vType="DEFAULT_VEHTYPE" speedFactor="0.99" vaporized=""/>
    <tripinfo id="37" depart="111.00" departLane="E0_0" departPos="5.10" departSpeed="0.00" departDelay="70.00" arrival="208.00" arrivalLane="E3_0" arrivalPos="90.46" arrivalSpeed="30.56" duration="97.00" routeLength="1314.99" waitingTime="0.00" waitingCount="0" stopTime="0.00" timeLoss="16.79" rerouteNo="0" devices="tripinfo_37" vType="DEFAULT_VEHTYPE" speedFactor="1.02" vaporized=""/>
    <tripinfo id="38" depart="114.00" departLane="E0_0" departPos="5.10" departSpeed="0.00" departDelay="68.00" arrival="213.00" arrivalLane="E3_0" arrivalPos="90.46" arrivalSpeed="29.05" duration="99.00" routeLength="1314.99" waitingTime="0.00" waitingCount="0" stopTime="0.00" timeLoss="15.28" rerouteNo="0" devices="tripinfo_38" vType="DEFAULT_VEHTYPE" speedFactor="0.97" vaporized=""/>
    <tripinfo id="39" depart="117.00" departLane="E0_0" departPos="5.10" departSpeed="0.00" departDelay="71.00" arrival="215.00" arrivalLane="E3_0" arrivalPos="90.46" arrivalSpeed="32.83" duration="98.00" routeLength="1314.99" waitingTime="0.00" waitingCount="0" stopTime="0.00" timeLoss="28.16" rerouteNo="0" devices="tripinfo_39" vType="DEFAULT_VEHTYPE" speedFactor="1.18" vaporized=""/>
    <tripinfo id="40" depart="120.00" departLane="E0_0" departPos="5.10" departSpeed="0.00" departDelay="69.00" arrival="216.00" arrivalLane="E3_0" arrivalPos="90.46" arrivalSpeed="31.81" duration="96.00" routeLength="1314.99" waitingTime="0.00" waitingCount="0" stopTime="0.00" timeLoss="21.47" rerouteNo="0" devices="tripinfo_40" vType="DEFAULT_VEHTYPE" speedFactor="1.10" vaporized=""/>
    <tripinfo id="41" depart="123.00" departLane="E0_0" departPos="5.10" departSpeed="0.00" departDelay="71.00" arrival="228.00" arrivalLane="E3_0" arrivalPos="90.46" arrivalSpeed="27.00" duration="105.00" routeLength="1314.99" waitingTime="0.00" waitingCount="0" stopTime="0.00" timeLoss="14.05" rerouteNo="0" devices="tripinfo_41" vType="DEFAULT_VEHTYPE" speedFactor="0.90" vaporized=""/>
    <tripinfo id="42" depart="126.00" departLane="E0_0" departPos="5.10" departSpeed="0.00" departDelay="73.00" arrival="230.00" arrivalLane="E3_0" arrivalPos="90.46" arrivalSpeed="30.26" duration="104.00" routeLength="1314.99" waitingTime="0.00" waitingCount="0" stopTime="0.00" timeLoss="23.81" rerouteNo="0" devices="tripinfo_42" vType="DEFAULT_VEHTYPE" speedFactor="1.03" vaporized=""/>
    <tripinfo id="43" depart="129.00" departLane="E0_0" departPos="5.10" departSpeed="0.00" departDelay="74.00" arrival="231.00" arrivalLane="E3_0" arrivalPos="90.46" arrivalSpeed="27.94" duration="102.00" routeLength="1314.99" waitingTime="0.00" waitingCount="0" stopTime="0.00" timeLoss="16.28" rerouteNo="0" devices="tripinfo_43" vType="DEFAULT_VEHTYPE" speedFactor="0.96" vaporized=""/>
    <tripinfo id="44" depart="132.00" departLane="E0_0" departPos="5.10" departSpeed="0.00" departDelay="77.00" arrival="232.00" arrivalLane="E3_0" arrivalPos="90.46" arrivalSpeed="30.53" duration="100.00" routeLength="1314.99" waitingTime="0.00" waitingCount="0" stopTime="0.00" timeLoss="25.13" rerouteNo="0" devices="tripinfo_44" vType="DEFAULT_VEHTYPE" speedFactor="1.09" vaporized=""/>
    <tripinfo id="45" depart="135.00" departLane="E0_0" departPos="5.10" departSpeed="0.00" departDelay="79.00" arrival="234.00" arrivalLane="E3_0" arrivalPos="90.46" arrivalSpeed="30.08" duration="99.00" routeLength="1314.99" waitingTime="0.00" waitingCount="0" stopTime="0.00" timeLoss="19.49" rerouteNo="0" devices="tripinfo_45" vType="DEFAULT_VEHTYPE" speedFactor="1.04" vaporized=""/>
    <tripinfo id="46" depart="138.00" departLane="E0_0" departPos="5.10" departSpeed="0.00" departDelay="82.00" arrival="235.00" arrivalLane="E3_0" arrivalPos="90.46" arrivalSpeed="31.02" duration="97.00" routeLength="1314.99" waitingTime="0.00" waitingCount="0" stopTime="0.00" timeLoss="18.48" rerouteNo="0" devices="tripinfo_46" vType="DEFAULT_VEHTYPE" speedFactor="1.04" vaporized=""/>
    <tripinfo id="47" depart="141.00" departLane="E0_0" departPos="5.10" departSpeed="0.00" departDelay="82.00" arrival="236.00" arrivalLane="E3_0" arrivalPos="90.46" arrivalSpeed="31.37" duration="95.00" routeLength="1314.99" waitingTime="0.00" waitingCount="0" stopTime="0.00" timeLoss="19.92" rerouteNo="0" devices="tripinfo_47" vType="DEFAULT_VEHTYPE" speedFactor="1.09" vaporized=""/>
    <tripinfo id="48" depart="144.00" departLane="E0_0" departPos="5.10" departSpeed="0.00" departDelay="83.00" arrival="242.00" arrivalLane="E3_0" arrivalPos="90.46" arrivalSpeed="29.41" duration="98.00" routeLength="1314.99" waitingTime="0.00" waitingCount="0" stopTime="0.00" timeLoss="15.30" rerouteNo="0" devices="tripinfo_48" vType="DEFAULT_VEHTYPE" speedFactor="1.00" vaporized=""/>
    <tripinfo id="49" depart="147.00" departLane="E0_0" departPos="5.10" departSpeed="0.00" departDelay="85.00" arrival="252.00" arrivalLane="E3_0" arrivalPos="90.46" arrivalSpeed="26.66" duration="105.00" routeLength="1314.99" waitingTime="0.00" waitingCount="0" stopTime="0.00" timeLoss="14.01" rerouteNo="0" devices="tripinfo_49" vType="DEFAULT_VEHTYPE" speedFactor="0.90" vaporized=""/>
    <tripinfo id="50" depart="150.00" departLane="E0_0" departPos="5.10" departSpeed="0.00" departDelay="86.00" arrival="258.00" arrivalLane="E3_0" arrivalPos="90.46" arrivalSpeed="25.83" duration="108.00" routeLength="1314.99" waitingTime="0.00" waitingCount="0" stopTime="0.00" timeLoss="14.03" rerouteNo="0" devices="tripinfo_50" vType="DEFAULT_VEHTYPE" speedFactor="0.88" vaporized=""/>
    <tripinfo id="51" depart="153.00" departLane="E0_0" departPos="5.10" departSpeed="0.00" departDelay="86.00" arrival="264.00" arrivalLane="E3_0" arrivalPos="90.46" arrivalSpeed="24.91" duration="111.00" routeLength="1314.99" waitingTime="0.00" waitingCount="0" stopTime="0.00" timeLoss="14.66" rerouteNo="0" devices="tripinfo_51" vType="DEFAULT_VEHTYPE" speedFactor="0.85" vaporized=""/>
    <tripinfo id="52" depart="156.00" departLane="E0_0" departPos="5.10" departSpeed="0.00" departDelay="87.00" arrival="268.00" arrivalLane="E3_0" arrivalPos="90.46" arrivalSpeed="24.59" duration="112.00" routeLength="1314.99" waitingTime="0.00" waitingCount="0" stopTime="0.00" timeLoss="16.07" rerouteNo="0" devices="tripinfo_52" vType="DEFAULT_VEHTYPE" speedFactor="0.85" vaporized=""/>
    <tripinfo id="53" depart="159.00" departLane="E0_0" departPos="5.10" departSpeed="0.00" departDelay="90.00" arrival="270.00" arrivalLane="E3_0" arrivalPos="90.46" arrivalSpeed="30.14" duration="111.00" routeLength="1314.99" waitingTime="0.00" waitingCount="0" stopTime="0.00" timeLoss="40.11" rerouteNo="0" devices="tripinfo_53" vType="DEFAULT_VEHTYPE" speedFactor="1.17" vaporized=""/>
    <tripinfo id="54" depart="162.00" departLane="E0_0" departPos="5.10" departSpeed="0.00" departDelay="88.00" arrival="271.00" arrivalLane="E3_0" arrivalPos="90.46" arrivalSpeed="29.51" duration="109.00" routeLength="1314.99" waitingTime="0.00" waitingCount="0" stopTime="0.00" timeLoss="27.95" rerouteNo="0" devices="tripinfo_54" vType="DEFAULT_VEHTYPE" speedFactor="1.02" vaporized=""/>
    <tripinfo id="55" depart="165.00" departLane="E0_0" departPos="5.10" departSpeed="0.00" departDelay="91.00" arrival="272.00" arrivalLane="E3_0" arrivalPos="90.46" arrivalSpeed="28.47" duration="107.00" routeLength="1314.99" waitingTime="0.00" waitingCount="0" stopTime="0.00" timeLoss="32.31" rerouteNo="0" devices="tripinfo_55" vType="DEFAULT_VEHTYPE" speedFactor="1.10" vaporized=""/>
    <tripinfo id="56" depart="168.00" departLane="E0_0" departPos="5.10" departSpeed="0.00" departDelay="93.00" arrival="274.00" arrivalLane="E3_0" arrivalPos="90.46" arrivalSpeed="29.34" duration="106.00" routeLength="1314.99" waitingTime="0.00" waitingCount="0" stopTime="0.00" timeLoss="23.84" rerouteNo="0" devices="tripinfo_56" vType="DEFAULT_VEHTYPE" speedFactor="1.00" vaporized=""/>
    <tripinfo id="57" depart="171.00" departLane="E0_0" departPos="5.10" departSpeed="0.00" departDelay="95.00" arrival="275.00" arrivalLane="E3_0" arrivalPos="90.46" arrivalSpeed="29.40" duration="104.00" routeLength="1314.99" waitingTime="0.00" waitingCount="0" stopTime="0.00" timeLoss="21.70" rerouteNo="0" devices="tripinfo_57" vType="DEFAULT_VEHTYPE" speedFactor="1.00" vaporized=""/>
    <tripinfo id="58" depart="174.00" departLane="E0_0" departPos="5.10" departSpeed="0.00" departDelay="97.00" arrival="280.00" arrivalLane="E3_0" arrivalPos="90.46" arrivalSpeed="26.03" duration="106.00" routeLength="1314.99" waitingTime="0.00" waitingCount="0" stopTime="0.00" timeLoss="14.94" rerouteNo="0" devices="tripinfo_58" vType="DEFAULT_VEHTYPE" speedFactor="0.90" vaporized=""/>
    <tripinfo id="59" depart="177.00" departLane="E0_0" departPos="5.10" departSpeed="0.00" departDelay="100.00" arrival="282.00" arrivalLane="E3_0" arrivalPos="90.46" arrivalSpeed="29.63" duration="105.00" routeLength="1314.99" waitingTime="0.00" waitingCount="0" stopTime="0.00" timeLoss="32.65" rerouteNo="0" devices="tripinfo_59" vType="DEFAULT_VEHTYPE" speedFactor="1.14" vaporized=""/>
    <tripinfo id="60" depart="180.00" departLane="E0_0" departPos="5.10" departSpeed="0.00" departDelay="102.00" arrival="283.00" arrivalLane="E3_0" arrivalPos="90.46" arrivalSpeed="29.72" duration="103.00" routeLength="1314.99" waitingTime="0.00" waitingCount="0" stopTime="0.00" timeLoss="22.69" rerouteNo="0" devices="tripinfo_60" vType="DEFAULT_VEHTYPE" speedFactor="1.02" vaporized=""/>
    <tripinfo id="61" depart="183.00" departLane="E0_0" departPos="5.10" departSpeed="0.00" departDelay="103.00" arrival="285.00" arrivalLane="E3_0" arrivalPos="90.46" arrivalSpeed="28.04" duration="102.00" routeLength="1314.99" waitingTime="0.00" waitingCount="0" stopTime="0.00" timeLoss="16.81" rerouteNo="0" devices="tripinfo_61" vType="DEFAULT_VEHTYPE" speedFactor="0.97" vaporized=""/>
    <tripinfo id="62" depart="186.00" departLane="E0_0" departPos="5.10" departSpeed="0.00" departDelay="106.00" arrival="286.00" arrivalLane="E3_0" arrivalPos="90.46" arrivalSpeed="30.72" duration="100.00" routeLength="1314.99" waitingTime="0.00" waitingCount="0" stopTime="0.00" timeLoss="23.76" rerouteNo="0" devices="tripinfo_62" vType="DEFAULT_VEHTYPE" speedFactor="1.08" vaporized=""/>
    <tripinfo id="63" depart="189.00" departLane="E0_0" departPos="5.10" departSpeed="0.00" departDelay="107.00" arrival="287.00" arrivalLane="E3_0" arrivalPos="90.46" arrivalSpeed="30.13" duration="98.00" routeLength="1314.99" waitingTime="0.00" waitingCount="0" stopTime="0.00" timeLoss="24.69" rerouteNo="0" devices="tripinfo_63" vType="DEFAULT_VEHTYPE" speedFactor="1.12" vaporized=""/>
    <tripinfo id="64" depart="192.00" departLane="E0_0" departPos="5.10" departSpeed="0.00" departDelay="109.00" arrival="289.00" arrivalLane="E3_0" arrivalPos="90.46" arrivalSpeed="29.36" duration="97.00" routeLength="1314.99" waitingTime="0.00" waitingCount="0" stopTime="0.00" timeLoss="16.08" rerouteNo="0" devices="tripinfo_64" vType="DEFAULT_VEHTYPE" speedFactor="1.02" vaporized=""/>
    <tripinfo id="65" depart="195.00" departLane="E0_0" departPos="5.10" departSpeed="0.00" departDelay="112.00" arrival="294.00" arrivalLane="E3_0" arrivalPos="90.46" arrivalSpeed="28.46" duration="99.00" routeLength="1314.99" waitingTime="0.00" waitingCount="0" stopTime="0.00" timeLoss="14.91" rerouteNo="0" devices="tripinfo_65" vType="DEFAULT_VEHTYPE" speedFactor="0.99" vaporized=""/>
    <tripinfo id="66" depart="198.00" departLane="E0_0" departPos="5.10" departSpeed="0.00" departDelay="112.00" arrival="301.00" arrivalLane="E3_0" arrivalPos="90.46" arrivalSpeed="27.16" duration="103.00" routeLength="1314.99" waitingTime="0.00" waitingCount="0" stopTime="0.00" timeLoss="14.88" rerouteNo="0" devices="tripinfo_66" vType="DEFAULT_VEHTYPE" speedFactor="0.94" vaporized=""/>
    <tripinfo id="67" depart="201.00" departLane="E0_0" departPos="5.10" departSpeed="0.00" departDelay="115.00" arrival="309.00" arrivalLane="E3_0" arrivalPos="90.46" arrivalSpeed="25.85" duration="108.00" routeLength="1314.99" waitingTime="0.00" waitingCount="0" stopTime="0.00" timeLoss="14.94" rerouteNo="0" devices="tripinfo_67" vType="DEFAULT_VEHTYPE" speedFactor="0.88" vaporized=""/>
    <tripinfo id="68" depart="204.00" departLane="E0_0" departPos="5.10" departSpeed="0.00" departDelay="117.00" arrival="311.00" arrivalLane="E3_0" arrivalPos="90.46" arrivalSpeed="25.96" duration="107.00" routeLength="1314.99" waitingTime="0.00" waitingCount="0" stopTime="0.00" timeLoss="16.27" rerouteNo="0" devices="tripinfo_68" vType="DEFAULT_VEHTYPE" speedFactor="0.91" vaporized=""/>
    <tripinfo id="69" depart="207.00" departLane="E0_0" departPos="5.10" departSpeed="0.00" departDelay="119.00" arrival="313.00" arrivalLane="E3_0" arrivalPos="90.46" arrivalSpeed="26.20" duration="106.00" routeLength="1314.99" waitingTime="0.00" waitingCount="0" stopTime="0.00" timeLoss="16.01" rerouteNo="0" devices="tripinfo_69" vType="DEFAULT_VEHTYPE" speedFactor="0.91" vaporized=""/>
    <tripinfo id="70" depart="210.00" departLane="E0_0" departPos="5.10" departSpeed="0.00" departDelay="122.00" arrival="315.00" arrivalLane="E3_0" arrivalPos="90.46" arrivalSpeed="30.76" duration="105.00" routeLength="1314.99" waitingTime="0.00" waitingCount="0" stopTime="0.00" timeLoss="25.11" rerouteNo="0" devices="tripinfo_70" vType="DEFAULT_VEHTYPE" speedFactor="1.04" vaporized=""/>
    <tripinfo id="72" depart="216.00" departLane="E0_0" departPos="5.10" departSpeed="0.00" departDelay="127.00" arrival="316.00" arrivalLane="E3_0" arrivalPos="90.46" arrivalSpeed="29.95" duration="100.00" routeLength="1314.99" waitingTime="0.00" waitingCount="0" stopTime="0.00" timeLoss="19.45" rerouteNo="0" devices="tripinfo_72" vType="DEFAULT_VEHTYPE" speedFactor="1.02" vaporized=""/>
    <tripinfo id="73" depart="219.00" departLane="E0_0" departPos="5.10" departSpeed="0.00" departDelay="130.00" arrival="318.00" arrivalLane="E3_0" arrivalPos="90.46" arrivalSpeed="28.18" duration="99.00" routeLength="1314.99" waitingTime="0.00" waitingCount="0" stopTime="0.00" timeLoss="14.85" rerouteNo="0" devices="tripinfo_73" vType="DEFAULT_VEHTYPE" speedFactor="0.97" vaporized=""/>
    <tripinfo id="74" depart="222.00" departLane="E0_0" departPos="5.10" departSpeed="0.00" departDelay="131.00" arrival="324.00" arrivalLane="E3_0" arrivalPos="90.46" arrivalSpeed="27.09" duration="102.00" routeLength="1314.99" waitingTime="0.00" waitingCount="0" stopTime="0.00" timeLoss="15.03" rerouteNo="0" devices="tripinfo_74" vType="DEFAULT_VEHTYPE" speedFactor="0.94" vaporized=""/>