<?xml version="1.0" encoding="UTF-8"?>

<!-- generated on 2023-04-28 21:43:40 by Eclipse SUMO sumo Version 1.16.0
<configuration xmlns:xsi="http://www.w3.org/2001/XMLSchema-instance" xsi:noNamespaceSchemaLocation="http://sumo.dlr.de/xsd/sumoConfiguration.xsd">

    <input>
        <net-file value="C:\Users\Local_Man\Desktop\Stolen%20Music\school%20stuff%20for%20college\Semester%2015%20(UH%20Graduate%20School)\COSC%206364%20Nikolaos\SUMO_Project\COSC6364_Project\configurations\maps\Braess_Homebrew_fixed1.net.xml"/>
        <route-files value="./configurations/Rounds/Braess_Homebrew_fixed1.net.xml-test-1/Macroscopic_DUE/011/Trips_File_011.rou.xml"/>
    </input>

    <output>
        <summary-output value="./configurations/Rounds/Braess_Homebrew_fixed1.net.xml-test-1/Macroscopic_DUE/011/summary.xml"/>
        <tripinfo-output value="./configurations/Rounds/Braess_Homebrew_fixed1.net.xml-test-1/Macroscopic_DUE/011/trips.trips.xml"/>
        <statistic-output value="./configurations/Rounds/Braess_Homebrew_fixed1.net.xml-test-1/Macroscopic_DUE/011/stats_output.xml"/>
    </output>

    <time>
        <begin value="0"/>
    </time>

    <report>
        <log value="./configurations/Rounds/Braess_Homebrew_fixed1.net.xml-test-1/Macroscopic_DUE/011/log.sumo.log"/>
        <no-step-log value="true"/>
    </report>

    <gui_only>
        <quit-on-end value="true"/>
    </gui_only>

</configuration>
-->

<tripinfos xmlns:xsi="http://www.w3.org/2001/XMLSchema-instance" xsi:noNamespaceSchemaLocation="http://sumo.dlr.de/xsd/tripinfo_file.xsd">
    <tripinfo id="2" depart="1.00" departLane="E0_0" departPos="5.10" departSpeed="19.50" departDelay="0.00" arrival="95.00" arrivalLane="E3_0" arrivalPos="90.46" arrivalSpeed="28.39" duration="94.00" routeLength="1314.99" waitingTime="0.00" waitingCount="0" stopTime="0.00" timeLoss="9.94" rerouteNo="0" devices="tripinfo_2" vType="DEFAULT_VEHTYPE" speedFactor="0.98" vaporized=""/>
    <tripinfo id="4" depart="5.00" departLane="E0_0" departPos="5.10" departSpeed="18.97" departDelay="0.00" arrival="97.00" arrivalLane="E3_0" arrivalPos="90.46" arrivalSpeed="31.79" duration="92.00" routeLength="1314.99" waitingTime="0.00" waitingCount="0" stopTime="0.00" timeLoss="23.22" rerouteNo="0" devices="tripinfo_4" vType="DEFAULT_VEHTYPE" speedFactor="1.20" vaporized=""/>
    <tripinfo id="5" depart="6.00" departLane="E0_0" departPos="5.10" departSpeed="17.18" departDelay="0.00" arrival="98.00" arrivalLane="E3_0" arrivalPos="90.46" arrivalSpeed="31.12" duration="92.00" routeLength="1314.99" waitingTime="0.00" waitingCount="0" stopTime="0.00" timeLoss="13.33" rerouteNo="0" devices="tripinfo_5" vType="DEFAULT_VEHTYPE" speedFactor="1.05" vaporized=""/>
    <tripinfo id="7" depart="8.00" departLane="E0_0" departPos="5.10" departSpeed="11.11" departDelay="1.00" arrival="110.00" arrivalLane="E3_0" arrivalPos="90.46" arrivalSpeed="27.68" duration="102.00" routeLength="1314.99" waitingTime="0.00" waitingCount="0" stopTime="0.00" timeLoss="14.68" rerouteNo="0" devices="tripinfo_7" vType="DEFAULT_VEHTYPE" speedFactor="0.94" vaporized=""/>
    <tripinfo id="9" depart="11.00" departLane="E0_0" departPos="5.10" departSpeed="8.90" departDelay="3.00" arrival="112.00" arrivalLane="E3_0" arrivalPos="90.46" arrivalSpeed="30.78" duration="101.00" routeLength="1314.99" waitingTime="0.00" waitingCount="0" stopTime="0.00" timeLoss="25.18" rerouteNo="0" devices="tripinfo_9" vType="DEFAULT_VEHTYPE" speedFactor="1.09" vaporized=""/>
    <tripinfo id="10" depart="12.00" departLane="E0_0" departPos="5.10" departSpeed="3.23" departDelay="4.00" arrival="121.00" arrivalLane="E3_0" arrivalPos="90.46" arrivalSpeed="26.40" duration="109.00" routeLength="1314.99" waitingTime="0.00" waitingCount="0" stopTime="0.00" timeLoss="19.31" rerouteNo="0" devices="tripinfo_10" vType="DEFAULT_VEHTYPE" speedFactor="0.92" vaporized=""/>
    <tripinfo id="13" depart="19.00" departLane="E0_0" departPos="5.10" departSpeed="1.76" departDelay="8.00" arrival="126.00" arrivalLane="E3_0" arrivalPos="90.46" arrivalSpeed="26.95" duration="107.00" routeLength="1314.99" waitingTime="0.00" waitingCount="0" stopTime="0.00" timeLoss="18.77" rerouteNo="0" devices="tripinfo_13" vType="DEFAULT_VEHTYPE" speedFactor="0.93" vaporized=""/>
    <tripinfo id="15" depart="24.00" departLane="E0_0" departPos="5.10" departSpeed="1.05" departDelay="12.00" arrival="129.00" arrivalLane="E3_0" arrivalPos="90.46" arrivalSpeed="26.80" duration="105.00" routeLength="1314.99" waitingTime="0.00" waitingCount="0" stopTime="0.00" timeLoss="17.42" rerouteNo="0" devices="tripinfo_15" vType="DEFAULT_VEHTYPE" speedFactor="0.94" vaporized=""/>
    <tripinfo id="16" depart="27.00" departLane="E0_0" departPos="5.10" departSpeed="0.64" departDelay="13.00" arrival="131.00" arrivalLane="E3_0" arrivalPos="90.46" arrivalSpeed="29.93" duration="104.00" routeLength="1314.99" waitingTime="0.00" waitingCount="0" stopTime="0.00" timeLoss="27.60" rerouteNo="0" devices="tripinfo_16" vType="DEFAULT_VEHTYPE" speedFactor="1.08" vaporized=""/>
    <tripinfo id="17" depart="31.00" departLane="E0_0" departPos="5.10" departSpeed="6.29" departDelay="16.00" arrival="132.00" arrivalLane="E3_0" arrivalPos="90.46" arrivalSpeed="30.29" duration="101.00" routeLength="1314.99" waitingTime="0.00" waitingCount="0" stopTime="0.00" timeLoss="19.55" rerouteNo="0" devices="tripinfo_17" vType="DEFAULT_VEHTYPE" speedFactor="1.01" vaporized=""/>
    <tripinfo id="18" depart="33.00" departLane="E0_0" departPos="5.10" departSpeed="6.11" departDelay="17.00" arrival="133.00" arrivalLane="E3_0" arrivalPos="90.46" arrivalSpeed="29.97" duration="100.00" routeLength="1314.99" waitingTime="0.00" waitingCount="0" stopTime="0.00" timeLoss="20.42" rerouteNo="0" devices="tripinfo_18" vType="DEFAULT_VEHTYPE" speedFactor="1.03" vaporized=""/>
    <tripinfo id="19" depart="35.00" departLane="E0_0" departPos="5.10" departSpeed="6.80" departDelay="18.00" arrival="144.00" arrivalLane="E3_0" arrivalPos="90.46" arrivalSpeed="25.95" duration="109.00" routeLength="1314.99" waitingTime="0.00" waitingCount="0" stopTime="0.00" timeLoss="16.79" rerouteNo="0" devices="tripinfo_19" vType="DEFAULT_VEHTYPE" speedFactor="0.89" vaporized=""/>
    <tripinfo id="25" depart="47.00" departLane="E0_0" departPos="5.10" departSpeed="7.94" departDelay="27.00" arrival="145.00" arrivalLane="E3_0" arrivalPos="90.46" arrivalSpeed="28.66" duration="98.00" routeLength="1314.99" waitingTime="0.00" waitingCount="0" stopTime="0.00" timeLoss="27.07" rerouteNo="0" devices="tripinfo_25" vType="DEFAULT_VEHTYPE" speedFactor="1.15" vaporized=""/>
    <tripinfo id="26" depart="49.00" departLane="E0_0" departPos="5.10" departSpeed="8.94" departDelay="28.00" arrival="147.00" arrivalLane="E3_0" arrivalPos="90.46" arrivalSpeed="29.23" duration="98.00" routeLength="1314.99" waitingTime="0.00" waitingCount="0" stopTime="0.00" timeLoss="24.34" rerouteNo="0" devices="tripinfo_26" vType="DEFAULT_VEHTYPE" speedFactor="1.12" vaporized=""/>
    <tripinfo id="27" depart="50.00" departLane="E0_0" departPos="5.10" departSpeed="4.44" departDelay="28.00" arrival="151.00" arrivalLane="E3_0" arrivalPos="90.46" arrivalSpeed="29.17" duration="101.00" routeLength="1314.99" waitingTime="0.00" waitingCount="0" stopTime="0.00" timeLoss="18.53" rerouteNo="0" devices="tripinfo_27" vType="DEFAULT_VEHTYPE" speedFactor="0.99" vaporized=""/>
    <tripinfo id="29" depart="55.00" departLane="E0_0" departPos="5.10" departSpeed="5.19" departDelay="31.00" arrival="156.00" arrivalLane="E3_0" arrivalPos="90.46" arrivalSpeed="29.81" duration="101.00" routeLength="1314.99" waitingTime="0.00" waitingCount="0" stopTime="0.00" timeLoss="20.39" rerouteNo="0" devices="tripinfo_29" vType="DEFAULT_VEHTYPE" speedFactor="1.02" vaporized=""/>
    <tripinfo id="30" depart="57.00" departLane="E0_0" departPos="5.10" departSpeed="5.85" departDelay="32.00" arrival="164.00" arrivalLane="E3_0" arrivalPos="90.46" arrivalSpeed="27.98" duration="107.00" routeLength="1314.99" waitingTime="0.00" waitingCount="0" stopTime="0.00" timeLoss="19.18" rerouteNo="0" devices="tripinfo_30" vType="DEFAULT_VEHTYPE" speedFactor="0.94" vaporized=""/>
    <tripinfo id="31" depart="59.00" departLane="E0_0" departPos="5.10" departSpeed="6.73" departDelay="33.00" arrival="165.00" arrivalLane="E3_0" arrivalPos="90.46" arrivalSpeed="29.40" duration="106.00" routeLength="1314.99" waitingTime="0.00" waitingCount="0" stopTime="0.00" timeLoss="31.61" rerouteNo="0" devices="tripinfo_31" vType="DEFAULT_VEHTYPE" speedFactor="1.10" vaporized=""/>
    <tripinfo id="3" depart="4.00" departLane="E0_0" departPos="5.10" departSpeed="21.65" departDelay="0.00" arrival="175.00" arrivalLane="E3_0" arrivalPos="90.46" arrivalSpeed="23.62" duration="171.00" routeLength="1317.38" waitingTime="71.00" waitingCount="1" stopTime="0.00" timeLoss="91.88" rerouteNo="0" devices="tripinfo_3" vType="DEFAULT_VEHTYPE" speedFactor="1.08" vaporized=""/>
    <tripinfo id="32" depart="61.00" departLane="E0_0" departPos="5.10" departSpeed="5.66" departDelay="35.00" arrival="178.00" arrivalLane="E3_0" arrivalPos="90.46" arrivalSpeed="24.06" duration="117.00" routeLength="1314.99" waitingTime="0.00" waitingCount="0" stopTime="0.00" timeLoss="18.99" rerouteNo="0" devices="tripinfo_32" vType="DEFAULT_VEHTYPE" speedFactor="0.83" vaporized=""/>
    <tripinfo id="34" depart="65.00" departLane="E0_0" departPos="5.10" departSpeed="0.22" departDelay="34.00" arrival="180.00" arrivalLane="E3_0" arrivalPos="90.46" arrivalSpeed="29.41" duration="115.00" routeLength="1314.99" waitingTime="0.00" waitingCount="0" stopTime="0.00" timeLoss="37.56" rerouteNo="0" devices="tripinfo_34" vType="DEFAULT_VEHTYPE" speedFactor="1.07" vaporized=""/>
    <tripinfo id="36" depart="71.00" departLane="E0_0" departPos="5.10" departSpeed="1.26" departDelay="33.00" arrival="195.00" arrivalLane="E3_0" arrivalPos="90.46" arrivalSpeed="22.78" duration="124.00" routeLength="1314.99" waitingTime="0.00" waitingCount="0" stopTime="0.00" timeLoss="17.73" rerouteNo="0" devices="tripinfo_36" vType="DEFAULT_VEHTYPE" speedFactor="0.77" vaporized=""/>
    <tripinfo id="38" depart="76.00" departLane="E0_0" departPos="5.10" departSpeed="2.83" departDelay="38.00" arrival="197.00" arrivalLane="E3_0" arrivalPos="90.46" arrivalSpeed="26.28" duration="121.00" routeLength="1314.99" waitingTime="0.00" waitingCount="0" stopTime="0.00" timeLoss="40.40" rerouteNo="0" devices="tripinfo_38" vType="DEFAULT_VEHTYPE" speedFactor="1.02" vaporized=""/>
    <tripinfo id="39" depart="79.00" departLane="E0_0" departPos="5.10" departSpeed="5.07" departDelay="40.00" arrival="198.00" arrivalLane="E3_0" arrivalPos="90.46" arrivalSpeed="25.60" duration="119.00" routeLength="1314.99" waitingTime="0.00" waitingCount="0" stopTime="0.00" timeLoss="25.07" rerouteNo="0" devices="tripinfo_39" vType="DEFAULT_VEHTYPE" speedFactor="0.88" vaporized=""/>
    <tripinfo id="40" depart="81.00" departLane="E0_0" departPos="5.10" departSpeed="3.74" departDelay="41.00" arrival="199.00" arrivalLane="E3_0" arrivalPos="90.46" arrivalSpeed="25.65" duration="118.00" routeLength="1314.99" waitingTime="0.00" waitingCount="0" stopTime="0.00" timeLoss="40.96" rerouteNo="0" devices="tripinfo_40" vType="DEFAULT_VEHTYPE" speedFactor="1.06" vaporized=""/>
    <tripinfo id="42" depart="86.00" departLane="E0_0" departPos="5.10" departSpeed="5.37" departDelay="45.00" arrival="201.00" arrivalLane="E3_0" arrivalPos="90.46" arrivalSpeed="28.13" duration="115.00" routeLength="1314.99" waitingTime="0.00" waitingCount="0" stopTime="0.00" timeLoss="36.34" rerouteNo="0" devices="tripinfo_42" vType="DEFAULT_VEHTYPE" speedFactor="1.05" vaporized=""/>
    <tripinfo id="43" depart="88.00" departLane="E0_0" departPos="5.10" departSpeed="6.17" departDelay="46.00" arrival="202.00" arrivalLane="E3_0" arrivalPos="90.46" arrivalSpeed="27.89" duration="114.00" routeLength="1314.99" waitingTime="0.00" waitingCount="0" stopTime="0.00" timeLoss="32.26" rerouteNo="0" devices="tripinfo_43" vType="DEFAULT_VEHTYPE" speedFactor="1.00" vaporized=""/>
    <tripinfo id="44" depart="90.00" departLane="E0_0" departPos="5.10" departSpeed="6.40" departDelay="46.00" arrival="204.00" arrivalLane="E3_0" arrivalPos="90.46" arrivalSpeed="28.58" duration="114.00" routeLength="1314.99" waitingTime="0.00" waitingCount="0" stopTime="0.00" timeLoss="39.22" rerouteNo="0" devices="tripinfo_44" vType="DEFAULT_VEHTYPE" speedFactor="1.10" vaporized=""/>
    <tripinfo id="45" depart="92.00" departLane="E0_0" departPos="5.10" departSpeed="6.76" departDelay="48.00" arrival="205.00" arrivalLane="E3_0" arrivalPos="90.46" arrivalSpeed="26.06" duration="113.00" routeLength="1314.99" waitingTime="0.00" waitingCount="0" stopTime="0.00" timeLoss="22.12" rerouteNo="0" devices="tripinfo_45" vType="DEFAULT_VEHTYPE" speedFactor="0.90" vaporized=""/>
    <tripinfo id="46" depart="94.00" departLane="E0_0" departPos="5.10" departSpeed="6.13" departDelay="49.00" arrival="207.00" arrivalLane="E3_0" arrivalPos="90.46" arrivalSpeed="28.26" duration="113.00" routeLength="1314.99" waitingTime="0.00" waitingCount="0" stopTime="0.00" timeLoss="27.31" rerouteNo="0" devices="tripinfo_46" vType="DEFAULT_VEHTYPE" speedFactor="0.96" vaporized=""/>
    <tripinfo id="50" depart="102.00" departLane="E0_0" departPos="5.10" departSpeed="2.33" departDelay="49.00" arrival="208.00" arrivalLane="E3_0" arrivalPos="90.46" arrivalSpeed="29.57" duration="106.00" routeLength="1314.99" waitingTime="0.00" waitingCount="0" stopTime="0.00" timeLoss="23.67" rerouteNo="0" devices="tripinfo_50" vType="DEFAULT_VEHTYPE" speedFactor="1.00" vaporized=""/>
    <tripinfo id="51" depart="105.00" departLane="E0_0" departPos="5.10" departSpeed="3.02" departDelay="51.00" arrival="210.00" arrivalLane="E3_0" arrivalPos="90.46" arrivalSpeed="29.38" duration="105.00" routeLength="1314.99" waitingTime="0.00" waitingCount="0" stopTime="0.00" timeLoss="21.52" rerouteNo="0" devices="tripinfo_51" vType="DEFAULT_VEHTYPE" speedFactor="0.99" vaporized=""/>
    <tripinfo id="6" depart="7.00" departLane="E0_0" departPos="5.10" departSpeed="14.30" departDelay="1.00" arrival="219.00" arrivalLane="E3_0" arrivalPos="90.46" arrivalSpeed="24.55" duration="212.00" routeLength="1317.38" waitingTime="106.00" waitingCount="2" stopTime="0.00" timeLoss="132.59" rerouteNo="0" devices="tripinfo_6" vType="DEFAULT_VEHTYPE" speedFactor="1.08" vaporized=""/>
    <tripinfo id="53" depart="110.00" departLane="E0_0" departPos="5.10" departSpeed="4.87" departDelay="55.00" arrival="222.00" arrivalLane="E3_0" arrivalPos="90.46" arrivalSpeed="26.81" duration="112.00" routeLength="1314.99" waitingTime="0.00" waitingCount="0" stopTime="0.00" timeLoss="21.67" rerouteNo="0" devices="tripinfo_53" vType="DEFAULT_VEHTYPE" speedFactor="0.91" vaporized=""/>
    <tripinfo id="54" depart="112.00" departLane="E0_0" departPos="5.10" departSpeed="3.00" departDelay="57.00" arrival="224.00" arrivalLane="E3_0" arrivalPos="90.46" arrivalSpeed="27.29" duration="112.00" routeLength="1314.99" waitingTime="0.00" waitingCount="0" stopTime="0.00" timeLoss="24.97" rerouteNo="0" devices="tripinfo_54" vType="DEFAULT_VEHTYPE" speedFactor="0.95" vaporized=""/>
    <tripinfo id="56" depart="117.00" departLane="E0_0" departPos="5.10" departSpeed="5.45" departDelay="60.00" arrival="227.00" arrivalLane="E3_0" arrivalPos="90.46" arrivalSpeed="27.03" duration="110.00" routeLength="1314.99" waitingTime="0.00" waitingCount="0" stopTime="0.00" timeLoss="21.36" rerouteNo="0" devices="tripinfo_56" vType="DEFAULT_VEHTYPE" speedFactor="0.93" vaporized=""/>
    <tripinfo id="62" depart="133.00" departLane="E0_0" departPos="5.10" departSpeed="5.24" departDelay="71.00" arrival="242.00" arrivalLane="E3_0" arrivalPos="90.46" arrivalSpeed="26.20" duration="109.00" routeLength="1314.99" waitingTime="0.00" waitingCount="0" stopTime="0.00" timeLoss="18.10" rerouteNo="0" devices="tripinfo_62" vType="DEFAULT_VEHTYPE" speedFactor="0.90" vaporized=""/>
    <tripinfo id="64" depart="137.00" departLane="E0_0" departPos="5.10" departSpeed="4.08" departDelay="73.00" arrival="244.00" arrivalLane="E3_0" arrivalPos="90.46" arrivalSpeed="31.17" duration="107.00" routeLength="1314.99" waitingTime="0.00" waitingCount="0" stopTime="0.00" timeLoss="30.92" rerouteNo="0" devices="tripinfo_64" vType="DEFAULT_VEHTYPE" speedFactor="1.08" vaporized=""/>
    <tripinfo id="65" depart="139.00" departLane="E0_0" departPos="5.10" departSpeed="2.88" departDelay="75.00" arrival="245.00" arrivalLane="E3_0" arrivalPos="90.46" arrivalSpeed="28.02" duration="106.00" routeLength="1314.99" waitingTime="0.00" waitingCount="0" stopTime="0.00" timeLoss="22.22" rerouteNo="0" devices="tripinfo_65" vType="DEFAULT_VEHTYPE" speedFactor="0.98" vaporized=""/>
    <tripinfo id="66" depart="142.00" departLane="E0_0" departPos="5.10" departSpeed="6.42" departDelay="78.00" arrival="247.00" arrivalLane="E3_0" arrivalPos="90.46" arrivalSpeed="28.84" duration="105.00" routeLength="1314.99" waitingTime="0.00" waitingCount="0" stopTime="0.00" timeLoss="20.76" rerouteNo="0" devices="tripinfo_66" vType="DEFAULT_VEHTYPE" speedFactor="0.98" vaporized=""/>
    <tripinfo id="68" depart="146.00" departLane="E0_0" departPos="5.10" departSpeed="8.44" departDelay="78.00" arrival="254.00" arrivalLane="E3_0" arrivalPos="90.46" arrivalSpeed="28.20" duration="108.00" routeLength="1314.99" waitingTime="0.00" waitingCount="0" stopTime="0.00" timeLoss="20.60" rerouteNo="0" devices="tripinfo_68" vType="DEFAULT_VEHTYPE" speedFactor="0.94" vaporized=""/>
    <tripinfo id="75" depart="162.00" departLane="E0_0" departPos="5.10" departSpeed="1.68" departDelay="85.00" arrival="256.00" arrivalLane="E3_0" arrivalPos="90.46" arrivalSpeed="32.54" duration="94.00" routeLength="1314.99" waitingTime="0.00" waitingCount="0" stopTime="0.00" timeLoss="18.77" rerouteNo="0" devices="tripinfo_75" vType="DEFAULT_VEHTYPE" speedFactor="1.10" vaporized=""/>
    <tripinfo id="76" depart="165.00" departLane="E0_0" departPos="5.10" departSpeed="3.29" departDelay="87.00" arrival="257.00" arrivalLane="E3_0" arrivalPos="90.46" arrivalSpeed="33.54" duration="92.00" routeLength="1314.99" waitingTime="0.00" waitingCount="0" stopTime="0.00" timeLoss="20.17" rerouteNo="0" devices="tripinfo_76" vType="DEFAULT_VEHTYPE" speedFactor="1.14" vaporized=""/>
    <tripinfo id="8" depart="9.00" departLane="E0_0" departPos="5.10" departSpeed="7.90" departDelay="2.00" arrival="268.00" arrivalLane="E3_0" arrivalPos="90.46" arrivalSpeed="25.74" duration="259.00" routeLength="1317.38" waitingTime="139.00" waitingCount="3" stopTime="0.00" timeLoss="174.47" rerouteNo="0" devices="tripinfo_8" vType="DEFAULT_VEHTYPE" speedFactor="1.02" vaporized=""/>
    <tripinfo id="80" depart="174.00" departLane="E0_0" departPos="5.10" departSpeed="4.93" departDelay="88.00" arrival="270.00" arrivalLane="E3_0" arrivalPos="90.46" arrivalSpeed="31.67" duration="96.00" routeLength="1314.99" waitingTime="0.00" waitingCount="0" stopTime="0.00" timeLoss="19.22" rerouteNo="0" devices="tripinfo_80" vType="DEFAULT_VEHTYPE" speedFactor="1.08" vaporized=""/>
    <tripinfo id="83" depart="182.00" departLane="E0_0" departPos="5.10" departSpeed="6.26" departDelay="91.00" arrival="277.00" arrivalLane="E3_0" arrivalPos="90.46" arrivalSpeed="30.68" duration="95.00" routeLength="1314.99" waitingTime="0.00" waitingCount="0" stopTime="0.00" timeLoss="17.20" rerouteNo="0" devices="tripinfo_83" vType="DEFAULT_VEHTYPE" speedFactor="1.06" vaporized=""/>
    <tripinfo id="86" depart="188.00" departLane="E0_0" departPos="5.10" departSpeed="2.84" departDelay="94.00" arrival="287.00" arrivalLane="E3_0" arrivalPos="90.46" arrivalSpeed="30.24" duration="99.00" routeLength="1314.99" waitingTime="0.00" waitingCount="0" stopTime="0.00" timeLoss="18.56" rerouteNo="0" devices="tripinfo_86" vType="DEFAULT_VEHTYPE" speedFactor="1.02" vaporized=""/>
    <tripinfo id="89" depart="195.00" departLane="E0_0" departPos="5.10" departSpeed="6.00" departDelay="98.00" arrival="288.00" arrivalLane="E3_0" arrivalPos="90.46" arrivalSpeed="31.31" duration="93.00" routeLength="1314.99" waitingTime="0.00" waitingCount="0" stopTime="0.00" timeLoss="23.32" rerouteNo="0" devices="tripinfo_89" vType="DEFAULT_VEHTYPE" speedFactor="1.18" vaporized=""/>
    <tripinfo id="11" depart="15.00" departLane="E0_0" departPos="5.10" departSpeed="5.09" departDelay="6.00" arrival="298.00" arrivalLane="E3_0" arrivalPos="90.46" arrivalSpeed="24.38" duration="283.00" routeLength="1317.38" waitingTime="162.00" waitingCount="4" stopTime="0.00" timeLoss="206.29" rerouteNo="0" devices="tripinfo_11" vType="DEFAULT_VEHTYPE" speedFactor="1.12" vaporized=""/>
    <tripinfo id="92" depart="201.00" departLane="E0_0" departPos="5.10" departSpeed="6.33" departDelay="103.00" arrival="305.00" arrivalLane="E3_0" arrivalPos="90.46" arrivalSpeed="29.23" duration="104.00" routeLength="1314.99" waitingTime="0.00" waitingCount="0" stopTime="0.00" timeLoss="18.96" rerouteNo="0" devices="tripinfo_92" vType="DEFAULT_VEHTYPE" speedFactor="0.98" vaporized=""/>
    <tripinfo id="93" depart="203.00" departLane="E0_0" departPos="5.10" departSpeed="5.82" departDelay="104.00" arrival="310.00" arrivalLane="E3_0" arrivalPos="90.46" arrivalSpeed="27.85" duration="107.00" routeLength="1314.99" waitingTime="0.00" waitingCount="0" stopTime="0.00" timeLoss="19.79" rerouteNo="0" devices="tripinfo_93" vType="DEFAULT_VEHTYPE" speedFactor="0.94" vaporized=""/>
    <tripinfo id="94" depart="205.00" departLane="E0_0" departPos="5.10" departSpeed="6.04" departDelay="106.00" arrival="312.00" arrivalLane="E3_0" arrivalPos="90.46" arrivalSpeed="30.47" duration="107.00" routeLength="1314.99" waitingTime="0.00" waitingCount="0" stopTime="0.00" timeLoss="26.90" rerouteNo="0" devices="tripinfo_94" vType="DEFAULT_VEHTYPE" speedFactor="1.03" vaporized=""/>
    <tripinfo id="96" depart="209.00" departLane="E0_0" departPos="5.10" departSpeed="5.15" departDelay="109.00" arrival="322.00" arrivalLane="E3_0" arrivalPos="90.46" arrivalSpeed="25.68" duration="113.00" routeLength="1314.99" waitingTime="0.00" waitingCount="0" stopTime="0.00" timeLoss="20.47" rerouteNo="0" devices="tripinfo_96" vType="DEFAULT_VEHTYPE" speedFactor="0.89" vaporized=""/>
    <tripinfo id="100" depart="220.00" departLane="E0_0" departPos="5.10" departSpeed="6.02" departDelay="118.00" arrival="324.00" arrivalLane="E3_0" arrivalPos="90.46" arrivalSpeed="28.91" duration="104.00" routeLength="1314.99" waitingTime="0.00" waitingCount="0" stopTime="0.00" timeLoss="29.15" rerouteNo="0" devices="tripinfo_100" vType="DEFAULT_VEHTYPE" speedFactor="1.10" vaporized=""/>
    <tripinfo id="12" depart="17.00" departLane="E0_0" departPos="5.10" departSpeed="4.46" departDelay="6.00" arrival="333.00" arrivalLane="E3_0" arrivalPos="90.46" arrivalSpeed="25.91" duration="316.00" routeLength="1317.38" waitingTime="176.00" waitingCount="5" stopTime="0.00" timeLoss="220.61" rerouteNo="0" devices="tripinfo_12" vType="DEFAULT_VEHTYPE" speedFactor="0.90" vaporized=""/>
    <tripinfo id="14" depart="22.00" departLane="E0_0" departPos="5.10" departSpeed="3.24" departDelay="10.00" arrival="335.00" arrivalLane="E3_0" arrivalPos="90.46" arrivalSpeed="25.26" duration="313.00" routeLength="1317.38" waitingTime="174.00" waitingCount="6" stopTime="0.00" timeLoss="230.45" rerouteNo="0" devices="tripinfo_14" vType="DEFAULT_VEHTYPE" speedFactor="1.04" vaporized=""/>
    <tripinfo id="20" depart="37.00" departLane="E0_0" departPos="5.10" departSpeed="7.82" departDelay="20.00" arrival="336.00" arrivalLane="E3_0" arrivalPos="90.46" arrivalSpeed="24.71" duration="299.00" routeLength="1317.38" waitingTime="167.00" waitingCount="6" stopTime="0.00" timeLoss="214.20" rerouteNo="0" devices="tripinfo_20" vType="DEFAULT_VEHTYPE" speedFactor="1.01" vaporized=""/>
    <tripinfo id="102" depart="224.00" departLane="E0_0" departPos="5.10" departSpeed="4.52" departDelay="119.00" arrival="342.00" arrivalLane="E3_0" arrivalPos="90.46" arrivalSpeed="25.11" duration="118.00" routeLength="1314.99" waitingTime="0.00" waitingCount="0" stopTime="0.00" timeLoss="20.11" rerouteNo="0" devices="tripinfo_102" vType="DEFAULT_VEHTYPE" speedFactor="0.84" vaporized=""/>
    <tripinfo id="104" depart="229.00" departLane="E0_0" departPos="5.10" departSpeed="6.81" departDelay="123.00" arrival="344.00" arrivalLane="E3_0" arrivalPos="90.46" arrivalSpeed="28.51" duration="115.00" routeLength="1314.99" waitingTime="0.00" waitingCount="0" stopTime="0.00" timeLoss="35.51" rerouteNo="0" devices="tripinfo_104" vType="DEFAULT_VEHTYPE" speedFactor="1.04" vaporized=""/>
    <tripinfo id="106" depart="233.00" departLane="E0_0" departPos="5.10" departSpeed="8.36" departDelay="126.00" arrival="345.00" arrivalLane="E3_0" arrivalPos="90.46" arrivalSpeed="27.59" duration="112.00" routeLength="1314.99" waitingTime="0.00" waitingCount="0" stopTime="0.00" timeLoss="25.54" rerouteNo="0" devices="tripinfo_106" vType="DEFAULT_VEHTYPE" speedFactor="0.95" vaporized=""/>
    <tripinfo id="110" depart="241.00" departLane="E0_0" departPos="5.10" departSpeed="1.01" departDelay="129.00" arrival="347.00" arrivalLane="E3_0" arrivalPos="90.46" arrivalSpeed="29.83" duration="106.00" routeLength="1314.99" waitingTime="0.00" waitingCount="0" stopTime="0.00" timeLoss="24.02" rerouteNo="0" devices="tripinfo_110" vType="DEFAULT_VEHTYPE" speedFactor="1.01" vaporized=""/>
    <tripinfo id="111" depart="244.00" departLane="E0_0" departPos="5.10" departSpeed="0.02" departDelay="131.00" arrival="348.00" arrivalLane="E3_0" arrivalPos="90.46" arrivalSpeed="28.31" duration="104.00" routeLength="1314.99" waitingTime="1.00" waitingCount="1" stopTime="0.00" timeLoss="30.72" rerouteNo="0" devices="tripinfo_111" vType="DEFAULT_VEHTYPE" speedFactor="1.13" vaporized=""/>
    <tripinfo id="112" depart="248.00" departLane="E0_0" departPos="5.10" departSpeed="3.80" departDelay="134.00" arrival="349.00" arrivalLane="E3_0" arrivalPos="90.46" arrivalSpeed="28.14" duration="101.00" routeLength="1314.99" waitingTime="0.00" waitingCount="0" stopTime="0.00" timeLoss="33.52" rerouteNo="0" devices="tripinfo_112" vType="DEFAULT_VEHTYPE" speedFactor="1.21" vaporized=""/>
    <tripinfo id="113" depart="250.00" departLane="E0_0" departPos="5.10" departSpeed="0.89" departDelay="135.00" arrival="362.00" arrivalLane="E3_0" arrivalPos="90.46" arrivalSpeed="25.99" duration="112.00" routeLength="1314.99" waitingTime="0.00" waitingCount="0" stopTime="0.00" timeLoss="18.81" rerouteNo="0" devices="tripinfo_113" vType="DEFAULT_VEHTYPE" speedFactor="0.89" vaporized=""/>
    <tripinfo id="114" depart="253.00" departLane="E0_0" departPos="5.10" departSpeed="0.28" departDelay="138.00" arrival="363.00" arrivalLane="E3_0" arrivalPos="90.46" arrivalSpeed="27.71" duration="110.00" routeLength="1314.99" waitingTime="0.00" waitingCount="0" stopTime="0.00" timeLoss="24.65" rerouteNo="0" devices="tripinfo_114" vType="DEFAULT_VEHTYPE" speedFactor="0.97" vaporized=""/>
    <tripinfo id="115" depart="257.00" departLane="E0_0" departPos="5.10" departSpeed="5.51" departDelay="140.00" arrival="364.00" arrivalLane="E3_0" arrivalPos="90.46" arrivalSpeed="28.48" duration="107.00" routeLength="1314.99" waitingTime="0.00" waitingCount="0" stopTime="0.00" timeLoss="28.19" rerouteNo="0" devices="tripinfo_115" vType="DEFAULT_VEHTYPE" speedFactor="1.04" vaporized=""/>
    <tripinfo id="120" depart="267.00" departLane="E0_0" departPos="5.10" departSpeed="6.84" departDelay="137.00" arrival="366.00" arrivalLane="E3_0" arrivalPos="90.46" arrivalSpeed="29.20" duration="99.00" routeLength="1314.99" waitingTime="0.00" waitingCount="0" stopTime="0.00" timeLoss="17.46" rerouteNo="0" devices="tripinfo_120" vType="DEFAULT_VEHTYPE" speedFactor="1.01" vaporized=""/>
    <tripinfo id="122" depart="271.00" departLane="E0_0" departPos="5.10" departSpeed="6.66" departDelay="138.00" arrival="372.00" arrivalLane="E3_0" arrivalPos="90.46" arrivalSpeed="29.65" duration="101.00" routeLength="1314.99" waitingTime="0.00" waitingCount="0" stopTime="0.00" timeLoss="18.36" rerouteNo="0" devices="tripinfo_122" vType="DEFAULT_VEHTYPE" speedFactor="1.00" vaporized=""/>
    <tripinfo id="21" depart="39.00" departLane="E0_0" departPos="5.10" departSpeed="8.84" departDelay="22.00" arrival="379.00" arrivalLane="E3_0" arrivalPos="90.46" arrivalSpeed="23.69" duration="340.00" routeLength="1317.38" waitingTime="191.00" waitingCount="6" stopTime="0.00" timeLoss="242.08" rerouteNo="0" devices="tripinfo_21" vType="DEFAULT_VEHTYPE" speedFactor="0.87" vaporized=""/>
    <tripinfo id="22" depart="40.00" departLane="E0_0" departPos="5.10" departSpeed="3.13" departDelay="23.00" arrival="381.00" arrivalLane="E3_0" arrivalPos="90.46" arrivalSpeed="24.13" duration="341.00" routeLength="1317.38" waitingTime="189.00" waitingCount="6" stopTime="0.00" timeLoss="258.31" rerouteNo="0" devices="tripinfo_22" vType="DEFAULT_VEHTYPE" speedFactor="1.03" vaporized=""/>
    <tripinfo id="23" depart="43.00" departLane="E0_0" departPos="5.10" departSpeed="6.19" departDelay="25.00" arrival="383.00" arrivalLane="E3_0" arrivalPos="90.46" arrivalSpeed="25.17" duration="340.00" routeLength="1317.38" waitingTime="183.00" waitingCount="7" stopTime="0.00" timeLoss="264.19" rerouteNo="0" devices="tripinfo_23" vType="DEFAULT_VEHTYPE" speedFactor="1.13" vaporized=""/>
    <tripinfo id="24" depart="45.00" departLane="E0_0" departPos="5.10" departSpeed="7.27" departDelay="27.00" arrival="385.00" arrivalLane="E3_0" arrivalPos="90.46" arrivalSpeed="25.21" duration="340.00" routeLength="1317.38" waitingTime="179.00" waitingCount="7" stopTime="0.00" timeLoss="244.31" rerouteNo="0" devices="tripinfo_24" vType="DEFAULT_VEHTYPE" speedFactor="0.89" vaporized=""/>