<?xml version="1.0" encoding="UTF-8"?>

<!-- generated on 2023-04-30 11:48:36 by Eclipse SUMO sumo Version 1.16.0
<configuration xmlns:xsi="http://www.w3.org/2001/XMLSchema-instance" xsi:noNamespaceSchemaLocation="http://sumo.dlr.de/xsd/sumoConfiguration.xsd">

    <input>
        <net-file value="001/../configurations/maps/4corners_neighborhoods.net.xml"/>
        <route-files value="001/Trips_File_001.rou.xml"/>
        <additional-files value="001/../edgedata.add.xml"/>
    </input>

    <output>
        <output-prefix value="001/"/>
        <summary-output value="001/../summary_001.xml"/>
        <tripinfo-output value="001/../tripinfo_001.xml"/>
    </output>

    <time>
        <begin value="0"/>
    </time>

    <processing>
        <route-steps value="200"/>
        <no-internal-links value="False"/>
        <time-to-teleport value="300"/>
        <time-to-teleport.highways value="0"/>
        <eager-insert value="False"/>
    </processing>

    <report>
        <verbose value="true"/>
        <no-warnings value="False"/>
        <log value="001/../iteration_001.sumo.log"/>
        <no-step-log value="true"/>
    </report>

    <random_number>
        <random value="False"/>
    </random_number>

</configuration>
-->

<tripinfos xmlns:xsi="http://www.w3.org/2001/XMLSchema-instance" xsi:noNamespaceSchemaLocation="http://sumo.dlr.de/xsd/tripinfo_file.xsd">
    <tripinfo id="42" depart="27.00" departLane="318908683#0_0" departPos="5.10" departSpeed="0.00" departDelay="0.00" arrival="83.00" arrivalLane="422688976#1_1" arrivalPos="294.40" arrivalSpeed="27.88" duration="56.00" routeLength="940.85" waitingTime="2.00" waitingCount="1" stopTime="0.00" timeLoss="20.39" rerouteNo="0" devices="tripinfo_42" vType="DEFAULT_VEHTYPE" speedFactor="1.03" vaporized=""/>
    <tripinfo id="24" depart="18.00" departLane="318908683#0_0" departPos="5.10" departSpeed="0.00" departDelay="0.00" arrival="89.00" arrivalLane="422688976#1_1" arrivalPos="294.40" arrivalSpeed="26.90" duration="71.00" routeLength="940.85" waitingTime="9.00" waitingCount="1" stopTime="0.00" timeLoss="33.24" rerouteNo="0" devices="tripinfo_24" vType="DEFAULT_VEHTYPE" speedFactor="0.97" vaporized=""/>
    <tripinfo id="4" depart="2.00" departLane="422685671#2_0" departPos="5.10" departSpeed="0.00" departDelay="0.00" arrival="95.00" arrivalLane="918280984_0" arrivalPos="38.78" arrivalSpeed="12.81" duration="93.00" routeLength="1069.78" waitingTime="30.00" waitingCount="1" stopTime="0.00" timeLoss="49.97" rerouteNo="0" devices="tripinfo_4" vType="DEFAULT_VEHTYPE" speedFactor="1.01" vaporized=""/>
    <tripinfo id="21" depart="14.00" departLane="318908683#0_0" departPos="5.10" departSpeed="0.00" departDelay="0.00" arrival="97.00" arrivalLane="918280984_0" arrivalPos="38.78" arrivalSpeed="14.81" duration="83.00" routeLength="693.58" waitingTime="32.00" waitingCount="2" stopTime="0.00" timeLoss="55.90" rerouteNo="0" devices="tripinfo_21" vType="DEFAULT_VEHTYPE" speedFactor="1.16" vaporized=""/>
    <tripinfo id="13" depart="8.00" departLane="422688973_0" departPos="5.10" departSpeed="0.00" departDelay="0.00" arrival="98.00" arrivalLane="-597602753#1_0" arrivalPos="143.59" arrivalSpeed="22.09" duration="90.00" routeLength="1063.91" waitingTime="0.00" waitingCount="0" stopTime="0.00" timeLoss="20.14" rerouteNo="0" devices="tripinfo_13" vType="DEFAULT_VEHTYPE" speedFactor="1.03" vaporized=""/>
    <tripinfo id="53" depart="36.00" departLane="318908683#0_0" departPos="5.10" departSpeed="0.00" departDelay="1.00" arrival="99.00" arrivalLane="918280984_0" arrivalPos="38.78" arrivalSpeed="16.07" duration="63.00" routeLength="693.58" waitingTime="15.00" waitingCount="1" stopTime="0.00" timeLoss="36.04" rerouteNo="0" devices="tripinfo_53" vType="DEFAULT_VEHTYPE" speedFactor="1.17" vaporized=""/>
    <tripinfo id="6" depart="2.00" departLane="-260998164#3_0" departPos="5.10" departSpeed="0.00" departDelay="0.00" arrival="101.00" arrivalLane="918280984_0" arrivalPos="38.78" arrivalSpeed="13.51" duration="99.00" routeLength="1455.19" waitingTime="17.00" waitingCount="2" stopTime="0.00" timeLoss="43.89" rerouteNo="0" devices="tripinfo_6" vType="DEFAULT_VEHTYPE" speedFactor="1.03" vaporized=""/>
    <tripinfo id="16" depart="11.00" departLane="597602756#0_0" departPos="5.10" departSpeed="0.00" departDelay="0.00" arrival="101.00" arrivalLane="260998164#0_0" arrivalPos="257.55" arrivalSpeed="27.10" duration="90.00" routeLength="1239.91" waitingTime="0.00" waitingCount="0" stopTime="0.00" timeLoss="15.82" rerouteNo="0" devices="tripinfo_16" vType="DEFAULT_VEHTYPE" speedFactor="0.99" vaporized=""/>
    <tripinfo id="11" depart="8.00" departLane="-260998164#3_0" departPos="5.10" departSpeed="0.00" departDelay="1.00" arrival="103.00" arrivalLane="15374898#0-AddedOffRampEdge_0" arrivalPos="100.00" arrivalSpeed="23.57" duration="95.00" routeLength="1332.80" waitingTime="24.00" waitingCount="1" stopTime="0.00" timeLoss="38.78" rerouteNo="0" devices="tripinfo_11" vType="DEFAULT_VEHTYPE" speedFactor="0.86" vaporized=""/>
    <tripinfo id="14" depart="14.00" departLane="-260998164#3_0" departPos="5.10" departSpeed="0.00" departDelay="6.00" arrival="103.00" arrivalLane="15374898#0-AddedOffRampEdge_1" arrivalPos="100.00" arrivalSpeed="28.88" duration="89.00" routeLength="1332.80" waitingTime="23.00" waitingCount="1" stopTime="0.00" timeLoss="42.28" rerouteNo="0" devices="tripinfo_14" vType="DEFAULT_VEHTYPE" speedFactor="1.05" vaporized=""/>
    <tripinfo id="30" depart="20.00" departLane="918280985_0" departPos="5.10" departSpeed="0.00" departDelay="0.00" arrival="104.00" arrivalLane="260998164#0_0" arrivalPos="257.55" arrivalSpeed="30.80" duration="84.00" routeLength="1460.33" waitingTime="13.00" waitingCount="1" stopTime="0.00" timeLoss="33.63" rerouteNo="0" devices="tripinfo_30" vType="DEFAULT_VEHTYPE" speedFactor="1.13" vaporized=""/>
    <tripinfo id="19" depart="17.00" departLane="-260998164#3_0" departPos="5.10" departSpeed="0.00" departDelay="3.00" arrival="107.00" arrivalLane="-318908683#1_0" arrivalPos="71.22" arrivalSpeed="12.40" duration="90.00" routeLength="955.07" waitingTime="36.00" waitingCount="1" stopTime="0.00" timeLoss="49.06" rerouteNo="0" devices="tripinfo_19" vType="DEFAULT_VEHTYPE" speedFactor="0.94" vaporized=""/>
    <tripinfo id="29" depart="20.00" departLane="422688973_0" departPos="5.10" departSpeed="0.00" departDelay="0.00" arrival="117.00" arrivalLane="15374898#0-AddedOffRampEdge_0" arrivalPos="100.00" arrivalSpeed="25.83" duration="97.00" routeLength="1006.54" waitingTime="39.00" waitingCount="1" stopTime="0.00" timeLoss="58.28" rerouteNo="0" devices="tripinfo_29" vType="DEFAULT_VEHTYPE" speedFactor="0.95" vaporized=""/>
    <tripinfo id="45" depart="31.00" departLane="422688973_0" departPos="5.10" departSpeed="0.00" departDelay="0.00" arrival="119.00" arrivalLane="15374898#0-AddedOffRampEdge_0" arrivalPos="100.00" arrivalSpeed="28.23" duration="88.00" routeLength="1006.54" waitingTime="31.00" waitingCount="1" stopTime="0.00" timeLoss="52.06" rerouteNo="0" devices="tripinfo_45" vType="DEFAULT_VEHTYPE" speedFactor="1.04" vaporized=""/>
    <tripinfo id="10" depart="8.00" departLane="105681660#12_0" departPos="5.10" departSpeed="0.00" departDelay="1.00" arrival="122.00" arrivalLane="-597602756#0_0" arrivalPos="325.99" arrivalSpeed="20.66" duration="114.00" routeLength="1877.95" waitingTime="0.00" waitingCount="0" stopTime="0.00" timeLoss="20.26" rerouteNo="0" devices="tripinfo_10" vType="DEFAULT_VEHTYPE" speedFactor="0.94" vaporized=""/>
    <tripinfo id="15" depart="11.00" departLane="597602753#0_0" departPos="5.10" departSpeed="0.00" departDelay="0.00" arrival="123.00" arrivalLane="422688976#1_0" arrivalPos="294.40" arrivalSpeed="29.97" duration="112.00" routeLength="1286.53" waitingTime="21.00" waitingCount="1" stopTime="0.00" timeLoss="42.20" rerouteNo="0" devices="tripinfo_15" vType="DEFAULT_VEHTYPE" speedFactor="1.12" vaporized=""/>
    <tripinfo id="26" depart="19.00" departLane="422685671#2_0" departPos="5.10" departSpeed="0.00" departDelay="0.00" arrival="123.00" arrivalLane="260998164#0_0" arrivalPos="257.55" arrivalSpeed="22.59" duration="104.00" routeLength="1329.43" waitingTime="24.00" waitingCount="2" stopTime="0.00" timeLoss="45.12" rerouteNo="0" devices="tripinfo_26" vType="DEFAULT_VEHTYPE" speedFactor="0.83" vaporized=""/>
    <tripinfo id="23" depart="15.00" departLane="422685671#2_0" departPos="5.10" departSpeed="0.00" departDelay="0.00" arrival="124.00" arrivalLane="260998164#0_0" arrivalPos="257.55" arrivalSpeed="23.98" duration="109.00" routeLength="1329.43" waitingTime="35.00" waitingCount="1" stopTime="0.00" timeLoss="61.19" rerouteNo="0" devices="tripinfo_23" vType="DEFAULT_VEHTYPE" speedFactor="1.01" vaporized=""/>
    <tripinfo id="8" depart="5.00" departLane="105681660#12_0" departPos="5.10" departSpeed="0.00" departDelay="2.00" arrival="125.00" arrivalLane="422688976#1_0" arrivalPos="294.40" arrivalSpeed="28.46" duration="120.00" routeLength="1630.66" waitingTime="9.00" waitingCount="1" stopTime="0.00" timeLoss="37.08" rerouteNo="0" devices="tripinfo_8" vType="DEFAULT_VEHTYPE" speedFactor="1.05" vaporized=""/>
    <tripinfo id="76" depart="72.00" departLane="422688973_0" departPos="5.10" departSpeed="0.00" departDelay="0.00" arrival="125.00" arrivalLane="15374898#0-AddedOffRampEdge_0" arrivalPos="100.00" arrivalSpeed="25.88" duration="53.00" routeLength="1006.54" waitingTime="0.00" waitingCount="0" stopTime="0.00" timeLoss="14.23" rerouteNo="0" devices="tripinfo_76" vType="DEFAULT_VEHTYPE" speedFactor="0.96" vaporized=""/>
    <tripinfo id="20" depart="14.00" departLane="918280985_0" departPos="5.10" departSpeed="0.00" departDelay="0.00" arrival="127.00" arrivalLane="-105681660#20_0" arrivalPos="806.12" arrivalSpeed="20.54" duration="113.00" routeLength="1360.98" waitingTime="19.00" waitingCount="1" stopTime="0.00" timeLoss="31.37" rerouteNo="0" devices="tripinfo_20" vType="DEFAULT_VEHTYPE" speedFactor="0.94" vaporized=""/>
    <tripinfo id="27" depart="19.00" departLane="597602753#0_0" departPos="5.10" departSpeed="0.00" departDelay="0.00" arrival="130.00" arrivalLane="422688976#1_0" arrivalPos="294.40" arrivalSpeed="24.01" duration="111.00" routeLength="1286.53" waitingTime="1.00" waitingCount="1" stopTime="0.00" timeLoss="20.04" rerouteNo="0" devices="tripinfo_27" vType="DEFAULT_VEHTYPE" speedFactor="0.87" vaporized=""/>
    <tripinfo id="41" depart="26.00" departLane="422688973_0" departPos="5.10" departSpeed="0.00" departDelay="0.00" arrival="130.00" arrivalLane="-318908683#1_0" arrivalPos="71.22" arrivalSpeed="11.69" duration="104.00" routeLength="684.23" waitingTime="52.00" waitingCount="2" stopTime="0.00" timeLoss="72.86" rerouteNo="0" devices="tripinfo_41" vType="DEFAULT_VEHTYPE" speedFactor="0.90" vaporized=""/>
    <tripinfo id="50" depart="33.00" departLane="318908683#0_0" departPos="5.10" departSpeed="0.00" departDelay="0.00" arrival="130.00" arrivalLane="-597602753#1_0" arrivalPos="143.59" arrivalSpeed="19.27" duration="97.00" routeLength="1208.14" waitingTime="9.00" waitingCount="1" stopTime="0.00" timeLoss="32.02" rerouteNo="0" devices="tripinfo_50" vType="DEFAULT_VEHTYPE" speedFactor="0.88" vaporized=""/>
    <tripinfo id="18" depart="14.00" departLane="597602753#0_0" departPos="5.10" departSpeed="0.00" departDelay="2.00" arrival="131.00" arrivalLane="-597602756#0_0" arrivalPos="325.99" arrivalSpeed="18.72" duration="117.00" routeLength="1646.04" waitingTime="11.00" waitingCount="1" stopTime="0.00" timeLoss="30.99" rerouteNo="0" devices="tripinfo_18" vType="DEFAULT_VEHTYPE" speedFactor="0.88" vaporized=""/>
    <tripinfo id="35" depart="24.00" departLane="597602756#0_0" departPos="5.10" departSpeed="0.00" departDelay="0.00" arrival="131.00" arrivalLane="-597602753#1_0" arrivalPos="143.59" arrivalSpeed="20.77" duration="107.00" routeLength="1638.96" waitingTime="16.00" waitingCount="1" stopTime="0.00" timeLoss="43.11" rerouteNo="0" devices="tripinfo_35" vType="DEFAULT_VEHTYPE" speedFactor="1.17" vaporized=""/>
    <tripinfo id="38" depart="25.00" departLane="597602753#0_0" departPos="5.10" departSpeed="0.00" departDelay="0.00" arrival="132.00" arrivalLane="-597602756#0_0" arrivalPos="325.99" arrivalSpeed="21.16" duration="107.00" routeLength="1646.04" waitingTime="4.00" waitingCount="1" stopTime="0.00" timeLoss="29.39" rerouteNo="0" devices="tripinfo_38" vType="DEFAULT_VEHTYPE" speedFactor="0.97" vaporized=""/>
    <tripinfo id="5" depart="3.00" departLane="918280985_0" departPos="5.10" departSpeed="0.00" departDelay="1.00" arrival="138.00" arrivalLane="-597602756#0_0" arrivalPos="325.99" arrivalSpeed="23.65" duration="135.00" routeLength="1890.39" waitingTime="28.00" waitingCount="1" stopTime="0.00" timeLoss="56.29" rerouteNo="0" devices="tripinfo_5" vType="DEFAULT_VEHTYPE" speedFactor="1.08" vaporized=""/>
    <tripinfo id="58" depart="48.00" departLane="597602753#0_0" departPos="5.10" departSpeed="0.00" departDelay="0.00" arrival="148.00" arrivalLane="-105681660#20_0" arrivalPos="806.12" arrivalSpeed="19.70" duration="100.00" routeLength="1387.70" waitingTime="11.00" waitingCount="2" stopTime="0.00" timeLoss="29.47" rerouteNo="0" devices="tripinfo_58" vType="DEFAULT_VEHTYPE" speedFactor="0.90" vaporized=""/>
    <tripinfo id="77" depart="74.00" departLane="105681660#12_0" departPos="5.10" departSpeed="0.00" departDelay="0.00" arrival="149.00" arrivalLane="-597602753#1_0" arrivalPos="143.59" arrivalSpeed="21.55" duration="75.00" routeLength="1380.56" waitingTime="0.00" waitingCount="0" stopTime="0.00" timeLoss="10.84" rerouteNo="0" devices="tripinfo_77" vType="DEFAULT_VEHTYPE" speedFactor="0.98" vaporized=""/>
    <tripinfo id="7" depart="2.00" departLane="105681660#12_0" departPos="5.10" departSpeed="0.00" departDelay="0.00" arrival="151.00" arrivalLane="260998164#0_0" arrivalPos="257.55" arrivalSpeed="22.97" duration="149.00" routeLength="2169.41" waitingTime="0.00" waitingCount="0" stopTime="0.00" timeLoss="22.11" rerouteNo="0" devices="tripinfo_7" vType="DEFAULT_VEHTYPE" speedFactor="0.83" vaporized=""/>
    <tripinfo id="12" depart="11.00" departLane="-260998164#3_0" departPos="5.10" departSpeed="0.00" departDelay="3.00" arrival="151.00" arrivalLane="422688976#1_0" arrivalPos="294.40" arrivalSpeed="29.07" duration="140.00" routeLength="1712.42" waitingTime="48.00" waitingCount="2" stopTime="0.00" timeLoss="82.48" rerouteNo="0" devices="tripinfo_12" vType="DEFAULT_VEHTYPE" speedFactor="1.09" vaporized=""/>
    <tripinfo id="39" depart="25.00" departLane="-260998164#3_0" departPos="5.10" departSpeed="0.00" departDelay="0.00" arrival="152.00" arrivalLane="422688976#1_1" arrivalPos="294.40" arrivalSpeed="32.35" duration="127.00" routeLength="1712.42" waitingTime="39.00" waitingCount="2" stopTime="0.00" timeLoss="73.89" rerouteNo="0" devices="tripinfo_39" vType="DEFAULT_VEHTYPE" speedFactor="1.18" vaporized=""/>
    <tripinfo id="44" depart="30.00" departLane="597602753#0_0" departPos="5.10" departSpeed="0.00" departDelay="0.00" arrival="153.00" arrivalLane="260998164#0_0" arrivalPos="257.55" arrivalSpeed="29.37" duration="123.00" routeLength="1937.50" waitingTime="2.00" waitingCount="1" stopTime="0.00" timeLoss="36.91" rerouteNo="0" devices="tripinfo_44" vType="DEFAULT_VEHTYPE" speedFactor="1.09" vaporized=""/>
    <tripinfo id="22" depart="15.00" departLane="597602756#0_0" departPos="5.10" departSpeed="0.00" departDelay="0.00" arrival="154.00" arrivalLane="422688976#1_1" arrivalPos="294.40" arrivalSpeed="27.77" duration="139.00" routeLength="1985.14" waitingTime="20.00" waitingCount="2" stopTime="0.00" timeLoss="56.39" rerouteNo="0" devices="tripinfo_22" vType="DEFAULT_VEHTYPE" speedFactor="1.02" vaporized=""/>
    <tripinfo id="60" depart="51.00" departLane="318908683#0_0" departPos="5.10" departSpeed="0.00" departDelay="0.00" arrival="159.00" arrivalLane="422688976#1_1" arrivalPos="294.40" arrivalSpeed="27.25" duration="108.00" routeLength="940.85" waitingTime="57.00" waitingCount="1" stopTime="0.00" timeLoss="72.22" rerouteNo="0" devices="tripinfo_60" vType="DEFAULT_VEHTYPE" speedFactor="1.02" vaporized=""/>
    <tripinfo id="63" depart="59.00" departLane="597602753#0_0" departPos="5.10" departSpeed="0.00" departDelay="0.00" arrival="159.00" arrivalLane="-597602756#0_0" arrivalPos="325.99" arrivalSpeed="23.60" duration="100.00" routeLength="1646.04" waitingTime="5.00" waitingCount="2" stopTime="0.00" timeLoss="32.38" rerouteNo="0" devices="tripinfo_63" vType="DEFAULT_VEHTYPE" speedFactor="1.12" vaporized=""/>
    <tripinfo id="9" depart="5.00" departLane="-260998164#3_0" departPos="5.10" departSpeed="0.00" departDelay="1.00" arrival="163.00" arrivalLane="-597602753#1_0" arrivalPos="143.59" arrivalSpeed="18.84" duration="158.00" routeLength="1979.71" waitingTime="35.00" waitingCount="2" stopTime="0.00" timeLoss="64.16" rerouteNo="0" devices="tripinfo_9" vType="DEFAULT_VEHTYPE" speedFactor="0.89" vaporized=""/>
    <tripinfo id="52" depart="35.00" departLane="-260998164#3_0" departPos="5.10" departSpeed="0.00" departDelay="0.00" arrival="163.00" arrivalLane="918280984_0" arrivalPos="38.78" arrivalSpeed="11.47" duration="128.00" routeLength="1455.19" waitingTime="34.00" waitingCount="3" stopTime="0.00" timeLoss="61.79" rerouteNo="0" devices="tripinfo_52" vType="DEFAULT_VEHTYPE" speedFactor="0.85" vaporized=""/>
    <tripinfo id="85" depart="80.00" departLane="918280985_0" departPos="5.10" departSpeed="0.00" departDelay="0.00" arrival="163.00" arrivalLane="15374898#0-AddedOffRampEdge_0" arrivalPos="100.00" arrivalSpeed="26.22" duration="83.00" routeLength="996.81" waitingTime="22.00" waitingCount="1" stopTime="0.00" timeLoss="42.52" rerouteNo="0" devices="tripinfo_85" vType="DEFAULT_VEHTYPE" speedFactor="0.97" vaporized=""/>
    <tripinfo id="40" depart="25.00" departLane="422685671#2_0" departPos="5.10" departSpeed="0.00" departDelay="0.00" arrival="164.00" arrivalLane="918280984_0" arrivalPos="38.78" arrivalSpeed="13.24" duration="139.00" routeLength="1069.78" waitingTime="68.00" waitingCount="3" stopTime="0.00" timeLoss="99.48" rerouteNo="0" devices="tripinfo_40" vType="DEFAULT_VEHTYPE" speedFactor="1.10" vaporized=""/>
    <tripinfo id="57" depart="44.00" departLane="597602753#0_0" departPos="5.10" departSpeed="0.00" departDelay="0.00" arrival="166.00" arrivalLane="918280984_0" arrivalPos="38.78" arrivalSpeed="12.82" duration="122.00" routeLength="1540.95" waitingTime="23.00" waitingCount="2" stopTime="0.00" timeLoss="53.26" rerouteNo="0" devices="tripinfo_57" vType="DEFAULT_VEHTYPE" speedFactor="1.00" vaporized=""/>
    <tripinfo id="2" depart="0.00" departLane="918280985_0" departPos="5.10" departSpeed="0.00" departDelay="0.00" arrival="168.00" arrivalLane="-597602753#1_0" arrivalPos="143.59" arrivalSpeed="23.31" duration="168.00" routeLength="1072.66" waitingTime="78.00" waitingCount="2" stopTime="0.00" timeLoss="98.68" rerouteNo="0" devices="tripinfo_2" vType="DEFAULT_VEHTYPE" speedFactor="1.06" vaporized=""/>
    <tripinfo id="82" depart="78.00" departLane="318908683#0_0" departPos="5.10" departSpeed="0.00" departDelay="1.00" arrival="168.00" arrivalLane="918280984_0" arrivalPos="38.78" arrivalSpeed="14.22" duration="90.00" routeLength="693.58" waitingTime="37.00" waitingCount="1" stopTime="0.00" timeLoss="59.90" rerouteNo="0" devices="tripinfo_82" vType="DEFAULT_VEHTYPE" speedFactor="1.03" vaporized=""/>
    <tripinfo id="43" depart="51.00" departLane="918280985_0" departPos="5.10" departSpeed="0.00" departDelay="24.00" arrival="170.00" arrivalLane="-597602753#1_0" arrivalPos="143.59" arrivalSpeed="20.06" duration="119.00" routeLength="1072.66" waitingTime="26.00" waitingCount="1" stopTime="0.00" timeLoss="42.81" rerouteNo="0" devices="tripinfo_43" vType="DEFAULT_VEHTYPE" speedFactor="0.96" vaporized=""/>
    <tripinfo id="83" depart="81.00" departLane="318908683#0_0" departPos="5.10" departSpeed="0.00" departDelay="3.00" arrival="170.00" arrivalLane="918280984_0" arrivalPos="38.78" arrivalSpeed="13.80" duration="89.00" routeLength="693.58" waitingTime="35.00" waitingCount="1" stopTime="0.00" timeLoss="57.88" rerouteNo="0" devices="tripinfo_83" vType="DEFAULT_VEHTYPE" speedFactor="1.00" vaporized=""/>
    <tripinfo id="56" depart="54.00" departLane="918280985_0" departPos="5.10" departSpeed="0.00" departDelay="12.00" arrival="174.00" arrivalLane="-597602753#1_0" arrivalPos="143.59" arrivalSpeed="21.48" duration="120.00" routeLength="1072.66" waitingTime="26.00" waitingCount="1" stopTime="0.00" timeLoss="46.55" rerouteNo="0" devices="tripinfo_56" vType="DEFAULT_VEHTYPE" speedFactor="1.00" vaporized=""/>
    <tripinfo id="95" depart="94.00" departLane="318908683#0_0" departPos="5.10" departSpeed="0.00" departDelay="0.00" arrival="175.00" arrivalLane="260998164#0_0" arrivalPos="257.55" arrivalSpeed="24.56" duration="81.00" routeLength="939.98" waitingTime="26.00" waitingCount="1" stopTime="0.00" timeLoss="39.59" rerouteNo="0" devices="tripinfo_95" vType="DEFAULT_VEHTYPE" speedFactor="0.92" vaporized=""/>
    <tripinfo id="46" depart="31.00" departLane="422685671#2_0" departPos="5.10" departSpeed="0.00" departDelay="0.00" arrival="176.00" arrivalLane="-105681660#20_0" arrivalPos="806.12" arrivalSpeed="22.44" duration="145.00" routeLength="1813.05" waitingTime="38.00" waitingCount="1" stopTime="0.00" timeLoss="66.85" rerouteNo="0" devices="tripinfo_46" vType="DEFAULT_VEHTYPE" speedFactor="1.04" vaporized=""/>
    <tripinfo id="111" depart="120.00" departLane="918280985_0" departPos="5.10" departSpeed="0.00" departDelay="11.00" arrival="178.00" arrivalLane="15374898#0-AddedOffRampEdge_0" arrivalPos="100.00" arrivalSpeed="26.28" duration="58.00" routeLength="996.81" waitingTime="0.00" waitingCount="0" stopTime="0.00" timeLoss="17.47" rerouteNo="0" devices="tripinfo_111" vType="DEFAULT_VEHTYPE" speedFactor="0.96" vaporized=""/>
    <tripinfo id="48" depart="34.00" departLane="422685671#2_0" departPos="5.10" departSpeed="0.00" departDelay="2.00" arrival="179.00" arrivalLane="-597602756#0_0" arrivalPos="325.99" arrivalSpeed="21.66" duration="145.00" routeLength="1778.05" waitingTime="38.00" waitingCount="1" stopTime="0.00" timeLoss="65.19" rerouteNo="0" devices="tripinfo_48" vType="DEFAULT_VEHTYPE" speedFactor="1.00" vaporized=""/>
    <tripinfo id="94" depart="93.00" departLane="105681660#12_0" departPos="5.10" departSpeed="0.00" departDelay="0.00" arrival="180.00" arrivalLane="-597602753#1_0" arrivalPos="143.59" arrivalSpeed="17.23" duration="87.00" routeLength="1380.56" waitingTime="0.00" waitingCount="0" stopTime="0.00" timeLoss="10.94" rerouteNo="0" devices="tripinfo_94" vType="DEFAULT_VEHTYPE" speedFactor="0.83" vaporized=""/>
    <tripinfo id="59" depart="50.00" departLane="422685671#2_0" departPos="5.10" departSpeed="0.00" departDelay="0.00" arrival="181.00" arrivalLane="-597602756#0_0" arrivalPos="325.99" arrivalSpeed="24.94" duration="131.00" routeLength="1778.05" waitingTime="25.00" waitingCount="1" stopTime="0.00" timeLoss="62.36" rerouteNo="0" devices="tripinfo_59" vType="DEFAULT_VEHTYPE" speedFactor="1.14" vaporized=""/>
    <tripinfo id="25" depart="19.00" departLane="105681660#12_0" departPos="5.10" departSpeed="0.00" departDelay="0.00" arrival="182.00" arrivalLane="918280984_0" arrivalPos="38.78" arrivalSpeed="12.15" duration="163.00" routeLength="1405.13" waitingTime="51.00" waitingCount="2" stopTime="0.00" timeLoss="71.79" rerouteNo="0" devices="tripinfo_25" vType="DEFAULT_VEHTYPE" speedFactor="0.89" vaporized=""/>
    <tripinfo id="75" depart="71.00" departLane="422688973_0" departPos="5.10" departSpeed="0.00" departDelay="0.00" arrival="184.00" arrivalLane="-105681660#20_0" arrivalPos="806.12" arrivalSpeed="23.21" duration="113.00" routeLength="1352.23" waitingTime="22.00" waitingCount="2" stopTime="0.00" timeLoss="41.79" rerouteNo="0" devices="tripinfo_75" vType="DEFAULT_VEHTYPE" speedFactor="1.06" vaporized=""/>
    <tripinfo id="67" depart="65.00" departLane="597602753#0_0" departPos="5.10" departSpeed="0.00" departDelay="2.00" arrival="187.00" arrivalLane="918280984_0" arrivalPos="38.78" arrivalSpeed="11.59" duration="122.00" routeLength="1061.00" waitingTime="22.00" waitingCount="1" stopTime="0.00" timeLoss="39.73" rerouteNo="0" devices="tripinfo_67" vType="DEFAULT_VEHTYPE" speedFactor="0.88" vaporized=""/>
    <tripinfo id="79" depart="75.00" departLane="422688973_0" departPos="5.10" departSpeed="0.00" departDelay="0.00" arrival="188.00" arrivalLane="-105681660#20_0" arrivalPos="806.12" arrivalSpeed="21.31" duration="113.00" routeLength="1352.23" waitingTime="12.00" waitingCount="2" stopTime="0.00" timeLoss="36.66" rerouteNo="0" devices="tripinfo_79" vType="DEFAULT_VEHTYPE" speedFactor="0.98" vaporized=""/>
    <tripinfo id="64" depart="60.00" departLane="422685671#2_0" departPos="5.10" departSpeed="0.00" departDelay="0.00" arrival="189.00" arrivalLane="-597602756#0_0" arrivalPos="325.99" arrivalSpeed="21.97" duration="129.00" routeLength="1778.05" waitingTime="19.00" waitingCount="1" stopTime="0.00" timeLoss="51.28" rerouteNo="0" devices="tripinfo_64" vType="DEFAULT_VEHTYPE" speedFactor="1.02" vaporized=""/>
    <tripinfo id="31" depart="23.00" departLane="918280985_0" departPos="5.10" departSpeed="0.00" departDelay="2.00" arrival="190.00" arrivalLane="260998164#0_0" arrivalPos="257.55" arrivalSpeed="25.54" duration="167.00" routeLength="1460.33" waitingTime="82.00" waitingCount="2" stopTime="0.00" timeLoss="105.37" rerouteNo="0" devices="tripinfo_31" vType="DEFAULT_VEHTYPE" speedFactor="0.93" vaporized=""/>
    <tripinfo id="55" depart="41.00" departLane="422685671#2_0" departPos="5.10" departSpeed="0.00" departDelay="0.00" arrival="190.00" arrivalLane="-597602753#1_0" arrivalPos="143.59" arrivalSpeed="24.33" duration="149.00" routeLength="1584.34" waitingTime="43.00" waitingCount="2" stopTime="0.00" timeLoss="85.61" rerouteNo="0" devices="tripinfo_55" vType="DEFAULT_VEHTYPE" speedFactor="1.10" vaporized=""/>
    <tripinfo id="118" depart="118.00" departLane="422688973_0" departPos="5.10" departSpeed="0.00" departDelay="0.00" arrival="190.00" arrivalLane="15374898#0-AddedOffRampEdge_0" arrivalPos="100.00" arrivalSpeed="31.78" duration="72.00" routeLength="1006.54" waitingTime="13.00" waitingCount="1" stopTime="0.00" timeLoss="39.97" rerouteNo="0" devices="tripinfo_118" vType="DEFAULT_VEHTYPE" speedFactor="1.18" vaporized=""/>
    <tripinfo id="36" depart="45.00" departLane="918280985_0" departPos="5.10" departSpeed="0.00" departDelay="21.00" arrival="192.00" arrivalLane="260998164#0_0" arrivalPos="257.55" arrivalSpeed="26.70" duration="147.00" routeLength="1460.33" waitingTime="68.00" waitingCount="1" stopTime="0.00" timeLoss="90.05" rerouteNo="0" devices="tripinfo_36" vType="DEFAULT_VEHTYPE" speedFactor="0.99" vaporized=""/>
    <tripinfo id="49" depart="32.00" departLane="105681660#12_0" departPos="5.10" departSpeed="0.00" departDelay="0.00" arrival="193.00" arrivalLane="918280984_0" arrivalPos="38.78" arrivalSpeed="11.97" duration="161.00" routeLength="1405.13" waitingTime="44.00" waitingCount="3" stopTime="0.00" timeLoss="71.29" rerouteNo="0" devices="tripinfo_49" vType="DEFAULT_VEHTYPE" speedFactor="0.90" vaporized=""/>
    <tripinfo id="37" depart="48.00" departLane="918280985_0" departPos="5.10" departSpeed="0.00" departDelay="24.00" arrival="194.00" arrivalLane="260998164#0_0" arrivalPos="257.55" arrivalSpeed="27.88" duration="146.00" routeLength="1460.33" waitingTime="67.00" waitingCount="1" stopTime="0.00" timeLoss="90.15" rerouteNo="0" devices="tripinfo_37" vType="DEFAULT_VEHTYPE" speedFactor="1.02" vaporized=""/>
    <tripinfo id="33" depart="23.00" departLane="422688973_0" departPos="5.10" departSpeed="0.00" departDelay="2.00" arrival="195.00" arrivalLane="260998164#0_0" arrivalPos="257.55" arrivalSpeed="29.73" duration="172.00" routeLength="1470.06" waitingTime="93.00" waitingCount="2" stopTime="0.00" timeLoss="124.94" rerouteNo="0" devices="tripinfo_33" vType="DEFAULT_VEHTYPE" speedFactor="1.15" vaporized=""/>
    <tripinfo id="54" depart="37.00" departLane="105681660#12_0" departPos="5.10" departSpeed="0.00" departDelay="0.00" arrival="195.00" arrivalLane="918280984_0" arrivalPos="38.78" arrivalSpeed="13.59" duration="158.00" routeLength="1405.13" waitingTime="41.00" waitingCount="3" stopTime="0.00" timeLoss="77.92" rerouteNo="0" devices="tripinfo_54" vType="DEFAULT_VEHTYPE" speedFactor="1.02" vaporized=""/>
    <tripinfo id="74" depart="71.00" departLane="105681660#12_0" departPos="5.10" departSpeed="0.00" departDelay="0.00" arrival="197.00" arrivalLane="918280984_0" arrivalPos="38.78" arrivalSpeed="12.94" duration="126.00" routeLength="1405.13" waitingTime="24.00" waitingCount="1" stopTime="0.00" timeLoss="39.90" rerouteNo="0" devices="tripinfo_74" vType="DEFAULT_VEHTYPE" speedFactor="0.94" vaporized=""/>
    <tripinfo id="3" depart="1.00" departLane="597602756#0_0" departPos="5.10" departSpeed="0.00" departDelay="0.00" arrival="198.00" arrivalLane="-597602753#1_0" arrivalPos="143.59" arrivalSpeed="20.79" duration="197.00" routeLength="2680.31" waitingTime="11.00" waitingCount="2" stopTime="0.00" timeLoss="52.54" rerouteNo="0" devices="tripinfo_3" vType="DEFAULT_VEHTYPE" speedFactor="0.94" vaporized=""/>
    <tripinfo id="47" depart="33.00" departLane="422688973_0" departPos="5.10" departSpeed="0.00" departDelay="1.00" arrival="199.00" arrivalLane="260998164#0_0" arrivalPos="257.55" arrivalSpeed="29.58" duration="166.00" routeLength="1470.06" waitingTime="81.00" waitingCount="2" stopTime="0.00" timeLoss="115.90" rerouteNo="0" devices="tripinfo_47" vType="DEFAULT_VEHTYPE" speedFactor="1.09" vaporized=""/>