<?xml version="1.0" encoding="UTF-8"?>

<!-- generated on 2023-04-30 00:47:08 by Eclipse SUMO sumo Version 1.16.0
<configuration xmlns:xsi="http://www.w3.org/2001/XMLSchema-instance" xsi:noNamespaceSchemaLocation="http://sumo.dlr.de/xsd/sumoConfiguration.xsd">

    <input>
        <net-file value="C:\Users\Local_Man\Desktop\Stolen%20Music\school%20stuff%20for%20college\Semester%2015%20(UH%20Graduate%20School)\COSC%206364%20Nikolaos\SUMO_Project\COSC6364_Project\configurations\maps\Braess_Homebrew_fixed1.net.xml"/>
        <route-files value="./configurations/Rounds/Braess_Homebrew_fixed1.net.xml-test-4/Macroscopic_DUE/009/Trips_File_009.rou.xml"/>
    </input>

    <output>
        <summary-output value="./configurations/Rounds/Braess_Homebrew_fixed1.net.xml-test-4/Macroscopic_DUE/009/summary.xml"/>
        <tripinfo-output value="./configurations/Rounds/Braess_Homebrew_fixed1.net.xml-test-4/Macroscopic_DUE/009/trips.trips.xml"/>
        <statistic-output value="./configurations/Rounds/Braess_Homebrew_fixed1.net.xml-test-4/Macroscopic_DUE/009/stats_output.xml"/>
    </output>

    <time>
        <begin value="0"/>
    </time>

    <report>
        <log value="./configurations/Rounds/Braess_Homebrew_fixed1.net.xml-test-4/Macroscopic_DUE/009/log.sumo.log"/>
        <no-step-log value="true"/>
    </report>

    <gui_only>
        <quit-on-end value="true"/>
    </gui_only>

</configuration>
-->

<tripinfos xmlns:xsi="http://www.w3.org/2001/XMLSchema-instance" xsi:noNamespaceSchemaLocation="http://sumo.dlr.de/xsd/tripinfo_file.xsd">
    <tripinfo id="3" depart="5.00" departLane="E0_0" departPos="5.10" departSpeed="16.96" departDelay="1.00" arrival="91.00" arrivalLane="E3_0" arrivalPos="90.46" arrivalSpeed="31.61" duration="86.00" routeLength="1314.99" waitingTime="0.00" waitingCount="0" stopTime="0.00" timeLoss="9.79" rerouteNo="0" devices="tripinfo_3" vType="DEFAULT_VEHTYPE" speedFactor="1.08" vaporized=""/>
    <tripinfo id="5" depart="11.00" departLane="E0_0" departPos="5.10" departSpeed="20.92" departDelay="1.00" arrival="100.00" arrivalLane="E3_0" arrivalPos="90.46" arrivalSpeed="30.77" duration="89.00" routeLength="1314.99" waitingTime="0.00" waitingCount="0" stopTime="0.00" timeLoss="10.23" rerouteNo="0" devices="tripinfo_5" vType="DEFAULT_VEHTYPE" speedFactor="1.05" vaporized=""/>
    <tripinfo id="6" depart="12.00" departLane="E0_0" departPos="5.10" departSpeed="18.70" departDelay="2.00" arrival="102.00" arrivalLane="E3_0" arrivalPos="90.46" arrivalSpeed="32.07" duration="90.00" routeLength="1314.99" waitingTime="0.00" waitingCount="0" stopTime="0.00" timeLoss="13.34" rerouteNo="0" devices="tripinfo_6" vType="DEFAULT_VEHTYPE" speedFactor="1.08" vaporized=""/>
    <tripinfo id="8" depart="14.00" departLane="E0_0" departPos="5.10" departSpeed="13.75" departDelay="3.00" arrival="109.00" arrivalLane="E3_0" arrivalPos="90.46" arrivalSpeed="29.92" duration="95.00" routeLength="1314.99" waitingTime="0.00" waitingCount="0" stopTime="0.00" timeLoss="14.74" rerouteNo="0" devices="tripinfo_8" vType="DEFAULT_VEHTYPE" speedFactor="1.02" vaporized=""/>
    <tripinfo id="11" depart="18.00" departLane="E0_0" departPos="5.10" departSpeed="8.43" departDelay="0.00" arrival="111.00" arrivalLane="E3_0" arrivalPos="90.46" arrivalSpeed="32.55" duration="93.00" routeLength="1314.99" waitingTime="0.00" waitingCount="0" stopTime="0.00" timeLoss="19.49" rerouteNo="0" devices="tripinfo_11" vType="DEFAULT_VEHTYPE" speedFactor="1.12" vaporized=""/>
    <tripinfo id="2" depart="4.00" departLane="E0_0" departPos="5.10" departSpeed="19.50" departDelay="0.00" arrival="121.00" arrivalLane="E3_0" arrivalPos="90.46" arrivalSpeed="24.16" duration="117.00" routeLength="1317.38" waitingTime="13.00" waitingCount="1" stopTime="0.00" timeLoss="28.61" rerouteNo="0" devices="tripinfo_2" vType="DEFAULT_VEHTYPE" speedFactor="0.98" vaporized=""/>
    <tripinfo id="12" depart="19.00" departLane="E0_0" departPos="5.10" departSpeed="3.65" departDelay="1.00" arrival="128.00" arrivalLane="E3_0" arrivalPos="90.46" arrivalSpeed="26.81" duration="109.00" routeLength="1314.99" waitingTime="0.00" waitingCount="0" stopTime="0.00" timeLoss="18.03" rerouteNo="0" devices="tripinfo_12" vType="DEFAULT_VEHTYPE" speedFactor="0.90" vaporized=""/>
    <tripinfo id="14" depart="24.00" departLane="E0_0" departPos="5.10" departSpeed="4.02" departDelay="5.00" arrival="130.00" arrivalLane="E3_0" arrivalPos="90.46" arrivalSpeed="29.76" duration="106.00" routeLength="1314.99" waitingTime="0.00" waitingCount="0" stopTime="0.00" timeLoss="26.89" rerouteNo="0" devices="tripinfo_14" vType="DEFAULT_VEHTYPE" speedFactor="1.04" vaporized=""/>
    <tripinfo id="18" depart="32.00" departLane="E0_0" departPos="5.10" departSpeed="3.84" departDelay="9.00" arrival="131.00" arrivalLane="E3_0" arrivalPos="90.46" arrivalSpeed="29.71" duration="99.00" routeLength="1314.99" waitingTime="0.00" waitingCount="0" stopTime="0.00" timeLoss="19.52" rerouteNo="0" devices="tripinfo_18" vType="DEFAULT_VEHTYPE" speedFactor="1.03" vaporized=""/>
    <tripinfo id="20" depart="36.00" departLane="E0_0" departPos="5.10" departSpeed="2.67" departDelay="12.00" arrival="137.00" arrivalLane="E3_0" arrivalPos="90.46" arrivalSpeed="29.26" duration="101.00" routeLength="1314.99" waitingTime="0.00" waitingCount="0" stopTime="0.00" timeLoss="19.55" rerouteNo="0" devices="tripinfo_20" vType="DEFAULT_VEHTYPE" speedFactor="1.01" vaporized=""/>
    <tripinfo id="4" depart="10.00" departLane="E0_0" departPos="5.10" departSpeed="24.01" departDelay="0.00" arrival="147.00" arrivalLane="E3_0" arrivalPos="90.46" arrivalSpeed="27.04" duration="137.00" routeLength="1317.38" waitingTime="32.00" waitingCount="2" stopTime="0.00" timeLoss="65.18" rerouteNo="0" devices="tripinfo_4" vType="DEFAULT_VEHTYPE" speedFactor="1.20" vaporized=""/>
    <tripinfo id="21" depart="39.00" departLane="E0_0" departPos="5.10" departSpeed="5.59" departDelay="14.00" arrival="152.00" arrivalLane="E3_0" arrivalPos="90.46" arrivalSpeed="25.92" duration="113.00" routeLength="1314.99" waitingTime="0.00" waitingCount="0" stopTime="0.00" timeLoss="18.80" rerouteNo="0" devices="tripinfo_21" vType="DEFAULT_VEHTYPE" speedFactor="0.87" vaporized=""/>
    <tripinfo id="22" depart="41.00" departLane="E0_0" departPos="5.10" departSpeed="4.44" departDelay="15.00" arrival="154.00" arrivalLane="E3_0" arrivalPos="90.46" arrivalSpeed="29.67" duration="113.00" routeLength="1314.99" waitingTime="0.00" waitingCount="0" stopTime="0.00" timeLoss="32.79" rerouteNo="0" devices="tripinfo_22" vType="DEFAULT_VEHTYPE" speedFactor="1.03" vaporized=""/>
    <tripinfo id="23" depart="43.00" departLane="E0_0" departPos="5.10" departSpeed="2.87" departDelay="14.00" arrival="155.00" arrivalLane="E3_0" arrivalPos="90.46" arrivalSpeed="29.18" duration="112.00" routeLength="1314.99" waitingTime="0.00" waitingCount="0" stopTime="0.00" timeLoss="39.16" rerouteNo="0" devices="tripinfo_23" vType="DEFAULT_VEHTYPE" speedFactor="1.13" vaporized=""/>
    <tripinfo id="24" depart="46.00" departLane="E0_0" departPos="5.10" departSpeed="5.78" departDelay="17.00" arrival="158.00" arrivalLane="E3_0" arrivalPos="90.46" arrivalSpeed="26.03" duration="112.00" routeLength="1314.99" waitingTime="0.00" waitingCount="0" stopTime="0.00" timeLoss="19.85" rerouteNo="0" devices="tripinfo_24" vType="DEFAULT_VEHTYPE" speedFactor="0.89" vaporized=""/>
    <tripinfo id="25" depart="48.00" departLane="E0_0" departPos="5.10" departSpeed="5.40" departDelay="18.00" arrival="159.00" arrivalLane="E3_0" arrivalPos="90.46" arrivalSpeed="28.06" duration="111.00" routeLength="1314.99" waitingTime="0.00" waitingCount="0" stopTime="0.00" timeLoss="39.66" rerouteNo="0" devices="tripinfo_25" vType="DEFAULT_VEHTYPE" speedFactor="1.15" vaporized=""/>
    <tripinfo id="27" depart="52.00" departLane="E0_0" departPos="5.10" departSpeed="3.72" departDelay="20.00" arrival="160.00" arrivalLane="E3_0" arrivalPos="90.46" arrivalSpeed="29.20" duration="108.00" routeLength="1314.99" waitingTime="0.00" waitingCount="0" stopTime="0.00" timeLoss="25.82" rerouteNo="0" devices="tripinfo_27" vType="DEFAULT_VEHTYPE" speedFactor="0.99" vaporized=""/>
    <tripinfo id="28" depart="55.00" departLane="E0_0" departPos="5.10" departSpeed="5.85" departDelay="23.00" arrival="162.00" arrivalLane="E3_0" arrivalPos="90.46" arrivalSpeed="27.78" duration="107.00" routeLength="1314.99" waitingTime="0.00" waitingCount="0" stopTime="0.00" timeLoss="22.26" rerouteNo="0" devices="tripinfo_28" vType="DEFAULT_VEHTYPE" speedFactor="0.97" vaporized=""/>
    <tripinfo id="30" depart="59.00" departLane="E0_0" departPos="5.10" departSpeed="5.95" departDelay="25.00" arrival="168.00" arrivalLane="E3_0" arrivalPos="90.46" arrivalSpeed="27.89" duration="109.00" routeLength="1314.99" waitingTime="0.00" waitingCount="0" stopTime="0.00" timeLoss="21.10" rerouteNo="0" devices="tripinfo_30" vType="DEFAULT_VEHTYPE" speedFactor="0.94" vaporized=""/>
    <tripinfo id="31" depart="61.00" departLane="E0_0" departPos="5.10" departSpeed="6.63" departDelay="27.00" arrival="169.00" arrivalLane="E3_0" arrivalPos="90.46" arrivalSpeed="28.71" duration="108.00" routeLength="1314.99" waitingTime="0.00" waitingCount="0" stopTime="0.00" timeLoss="33.34" rerouteNo="0" devices="tripinfo_31" vType="DEFAULT_VEHTYPE" speedFactor="1.10" vaporized=""/>
    <tripinfo id="33" depart="65.00" departLane="E0_0" departPos="5.10" departSpeed="6.91" departDelay="30.00" arrival="170.00" arrivalLane="E3_0" arrivalPos="90.46" arrivalSpeed="28.71" duration="105.00" routeLength="1314.99" waitingTime="0.00" waitingCount="0" stopTime="0.00" timeLoss="25.43" rerouteNo="0" devices="tripinfo_33" vType="DEFAULT_VEHTYPE" speedFactor="1.03" vaporized=""/>
    <tripinfo id="34" depart="67.00" departLane="E0_0" departPos="5.10" departSpeed="2.75" departDelay="31.00" arrival="172.00" arrivalLane="E3_0" arrivalPos="90.46" arrivalSpeed="31.83" duration="105.00" routeLength="1314.99" waitingTime="0.00" waitingCount="0" stopTime="0.00" timeLoss="27.33" rerouteNo="0" devices="tripinfo_34" vType="DEFAULT_VEHTYPE" speedFactor="1.07" vaporized=""/>
    <tripinfo id="35" depart="70.00" departLane="E0_0" departPos="5.10" departSpeed="4.77" departDelay="31.00" arrival="173.00" arrivalLane="E3_0" arrivalPos="90.46" arrivalSpeed="30.57" duration="103.00" routeLength="1314.99" waitingTime="0.00" waitingCount="0" stopTime="0.00" timeLoss="23.52" rerouteNo="0" devices="tripinfo_35" vType="DEFAULT_VEHTYPE" speedFactor="1.04" vaporized=""/>
    <tripinfo id="7" depart="13.00" departLane="E0_0" departPos="5.10" departSpeed="16.80" departDelay="2.00" arrival="182.00" arrivalLane="E3_0" arrivalPos="90.46" arrivalSpeed="23.51" duration="169.00" routeLength="1317.38" waitingTime="48.00" waitingCount="2" stopTime="0.00" timeLoss="77.55" rerouteNo="0" devices="tripinfo_7" vType="DEFAULT_VEHTYPE" speedFactor="0.94" vaporized=""/>
    <tripinfo id="37" depart="75.00" departLane="E0_0" departPos="5.10" departSpeed="4.48" departDelay="34.00" arrival="188.00" arrivalLane="E3_0" arrivalPos="90.46" arrivalSpeed="27.00" duration="113.00" routeLength="1314.99" waitingTime="0.00" waitingCount="0" stopTime="0.00" timeLoss="22.03" rerouteNo="0" devices="tripinfo_37" vType="DEFAULT_VEHTYPE" speedFactor="0.90" vaporized=""/>
    <tripinfo id="40" depart="84.00" departLane="E0_0" departPos="5.10" departSpeed="4.32" departDelay="33.00" arrival="190.00" arrivalLane="E3_0" arrivalPos="90.46" arrivalSpeed="30.07" duration="106.00" routeLength="1314.99" waitingTime="0.00" waitingCount="0" stopTime="0.00" timeLoss="28.35" rerouteNo="0" devices="tripinfo_40" vType="DEFAULT_VEHTYPE" speedFactor="1.06" vaporized=""/>
    <tripinfo id="41" depart="86.00" departLane="E0_0" departPos="5.10" departSpeed="2.75" departDelay="34.00" arrival="191.00" arrivalLane="E3_0" arrivalPos="90.46" arrivalSpeed="30.10" duration="105.00" routeLength="1314.99" waitingTime="0.00" waitingCount="0" stopTime="0.00" timeLoss="34.53" rerouteNo="0" devices="tripinfo_41" vType="DEFAULT_VEHTYPE" speedFactor="1.17" vaporized=""/>
    <tripinfo id="47" depart="103.00" departLane="E0_0" departPos="5.10" departSpeed="7.18" departDelay="44.00" arrival="198.00" arrivalLane="E3_0" arrivalPos="90.46" arrivalSpeed="30.13" duration="95.00" routeLength="1314.99" waitingTime="0.00" waitingCount="0" stopTime="0.00" timeLoss="14.77" rerouteNo="0" devices="tripinfo_47" vType="DEFAULT_VEHTYPE" speedFactor="1.02" vaporized=""/>
    <tripinfo id="48" depart="105.00" departLane="E0_0" departPos="5.10" departSpeed="7.39" departDelay="44.00" arrival="203.00" arrivalLane="E3_0" arrivalPos="90.46" arrivalSpeed="28.79" duration="98.00" routeLength="1314.99" waitingTime="0.00" waitingCount="0" stopTime="0.00" timeLoss="14.92" rerouteNo="0" devices="tripinfo_48" vType="DEFAULT_VEHTYPE" speedFactor="1.00" vaporized=""/>
    <tripinfo id="49" depart="107.00" departLane="E0_0" departPos="5.10" departSpeed="8.65" departDelay="45.00" arrival="204.00" arrivalLane="E3_0" arrivalPos="90.46" arrivalSpeed="31.26" duration="97.00" routeLength="1314.99" waitingTime="0.00" waitingCount="0" stopTime="0.00" timeLoss="23.25" rerouteNo="0" devices="tripinfo_49" vType="DEFAULT_VEHTYPE" speedFactor="1.12" vaporized=""/>
    <tripinfo id="9" depart="15.00" departLane="E0_0" departPos="5.10" departSpeed="10.50" departDelay="1.00" arrival="214.00" arrivalLane="E3_0" arrivalPos="90.46" arrivalSpeed="24.27" duration="199.00" routeLength="1317.38" waitingTime="73.00" waitingCount="3" stopTime="0.00" timeLoss="120.20" rerouteNo="0" devices="tripinfo_9" vType="DEFAULT_VEHTYPE" speedFactor="1.09" vaporized=""/>
    <tripinfo id="52" depart="113.00" departLane="E0_0" departPos="5.10" departSpeed="5.08" departDelay="44.00" arrival="216.00" arrivalLane="E3_0" arrivalPos="90.46" arrivalSpeed="28.42" duration="103.00" routeLength="1314.99" waitingTime="0.00" waitingCount="0" stopTime="0.00" timeLoss="17.22" rerouteNo="0" devices="tripinfo_52" vType="DEFAULT_VEHTYPE" speedFactor="0.96" vaporized=""/>
    <tripinfo id="53" depart="115.00" departLane="E0_0" departPos="5.10" departSpeed="5.40" departDelay="46.00" arrival="222.00" arrivalLane="E3_0" arrivalPos="90.46" arrivalSpeed="26.54" duration="107.00" routeLength="1314.99" waitingTime="0.00" waitingCount="0" stopTime="0.00" timeLoss="16.37" rerouteNo="0" devices="tripinfo_53" vType="DEFAULT_VEHTYPE" speedFactor="0.91" vaporized=""/>
    <tripinfo id="54" depart="117.00" departLane="E0_0" departPos="5.10" departSpeed="4.60" departDelay="43.00" arrival="224.00" arrivalLane="E3_0" arrivalPos="90.46" arrivalSpeed="28.38" duration="107.00" routeLength="1314.99" waitingTime="0.00" waitingCount="0" stopTime="0.00" timeLoss="19.93" rerouteNo="0" devices="tripinfo_54" vType="DEFAULT_VEHTYPE" speedFactor="0.95" vaporized=""/>
    <tripinfo id="55" depart="119.00" departLane="E0_0" departPos="5.10" departSpeed="3.03" departDelay="45.00" arrival="225.00" arrivalLane="E3_0" arrivalPos="90.46" arrivalSpeed="30.23" duration="106.00" routeLength="1314.99" waitingTime="0.00" waitingCount="0" stopTime="0.00" timeLoss="25.60" rerouteNo="0" devices="tripinfo_55" vType="DEFAULT_VEHTYPE" speedFactor="1.02" vaporized=""/>
    <tripinfo id="57" depart="124.00" departLane="E0_0" departPos="5.10" departSpeed="6.76" departDelay="48.00" arrival="226.00" arrivalLane="E3_0" arrivalPos="90.46" arrivalSpeed="29.61" duration="102.00" routeLength="1314.99" waitingTime="0.00" waitingCount="0" stopTime="0.00" timeLoss="24.61" rerouteNo="0" devices="tripinfo_57" vType="DEFAULT_VEHTYPE" speedFactor="1.06" vaporized=""/>
    <tripinfo id="58" depart="126.00" departLane="E0_0" departPos="5.10" departSpeed="6.84" departDelay="49.00" arrival="228.00" arrivalLane="E3_0" arrivalPos="90.46" arrivalSpeed="31.03" duration="102.00" routeLength="1314.99" waitingTime="0.00" waitingCount="0" stopTime="0.00" timeLoss="28.28" rerouteNo="0" devices="tripinfo_58" vType="DEFAULT_VEHTYPE" speedFactor="1.12" vaporized=""/>
    <tripinfo id="59" depart="128.00" departLane="E0_0" departPos="5.10" departSpeed="7.25" departDelay="51.00" arrival="229.00" arrivalLane="E3_0" arrivalPos="90.46" arrivalSpeed="30.35" duration="101.00" routeLength="1314.99" waitingTime="0.00" waitingCount="0" stopTime="0.00" timeLoss="21.70" rerouteNo="0" devices="tripinfo_59" vType="DEFAULT_VEHTYPE" speedFactor="1.03" vaporized=""/>
    <tripinfo id="60" depart="130.00" departLane="E0_0" departPos="5.10" departSpeed="8.27" departDelay="52.00" arrival="238.00" arrivalLane="E3_0" arrivalPos="90.46" arrivalSpeed="27.40" duration="108.00" routeLength="1314.99" waitingTime="0.00" waitingCount="0" stopTime="0.00" timeLoss="18.85" rerouteNo="0" devices="tripinfo_60" vType="DEFAULT_VEHTYPE" speedFactor="0.92" vaporized=""/>
    <tripinfo id="61" depart="131.00" departLane="E0_0" departPos="5.10" departSpeed="3.43" departDelay="51.00" arrival="240.00" arrivalLane="E3_0" arrivalPos="90.46" arrivalSpeed="30.84" duration="109.00" routeLength="1314.99" waitingTime="0.00" waitingCount="0" stopTime="0.00" timeLoss="33.24" rerouteNo="0" devices="tripinfo_61" vType="DEFAULT_VEHTYPE" speedFactor="1.09" vaporized=""/>
    <tripinfo id="63" depart="136.00" departLane="E0_0" departPos="5.10" departSpeed="4.70" departDelay="54.00" arrival="241.00" arrivalLane="E3_0" arrivalPos="90.46" arrivalSpeed="29.24" duration="105.00" routeLength="1314.99" waitingTime="0.00" waitingCount="0" stopTime="0.00" timeLoss="24.35" rerouteNo="0" devices="tripinfo_63" vType="DEFAULT_VEHTYPE" speedFactor="1.02" vaporized=""/>
    <tripinfo id="64" depart="138.00" departLane="E0_0" departPos="5.10" departSpeed="4.46" departDelay="55.00" arrival="243.00" arrivalLane="E3_0" arrivalPos="90.46" arrivalSpeed="32.44" duration="105.00" routeLength="1314.99" waitingTime="0.00" waitingCount="0" stopTime="0.00" timeLoss="28.79" rerouteNo="0" devices="tripinfo_64" vType="DEFAULT_VEHTYPE" speedFactor="1.08" vaporized=""/>
    <tripinfo id="67" depart="145.00" departLane="E0_0" departPos="5.10" departSpeed="0.75" departDelay="59.00" arrival="248.00" arrivalLane="E3_0" arrivalPos="90.46" arrivalSpeed="30.08" duration="103.00" routeLength="1314.99" waitingTime="0.00" waitingCount="0" stopTime="0.00" timeLoss="21.03" rerouteNo="0" devices="tripinfo_67" vType="DEFAULT_VEHTYPE" speedFactor="1.01" vaporized=""/>
    <tripinfo id="10" depart="17.00" departLane="E0_0" departPos="5.10" departSpeed="12.28" departDelay="0.00" arrival="258.00" arrivalLane="E3_0" arrivalPos="90.46" arrivalSpeed="26.35" duration="241.00" routeLength="1317.38" waitingTime="107.00" waitingCount="4" stopTime="0.00" timeLoss="147.54" rerouteNo="0" devices="tripinfo_10" vType="DEFAULT_VEHTYPE" speedFactor="0.92" vaporized=""/>
    <tripinfo id="13" depart="21.00" departLane="E0_0" departPos="5.10" departSpeed="1.48" departDelay="2.00" arrival="259.00" arrivalLane="E3_0" arrivalPos="90.46" arrivalSpeed="23.82" duration="238.00" routeLength="1317.38" waitingTime="103.00" waitingCount="4" stopTime="0.00" timeLoss="145.82" rerouteNo="0" devices="tripinfo_13" vType="DEFAULT_VEHTYPE" speedFactor="0.93" vaporized=""/>
    <tripinfo id="15" depart="26.00" departLane="E0_0" departPos="5.10" departSpeed="2.54" departDelay="6.00" arrival="261.00" arrivalLane="E3_0" arrivalPos="90.46" arrivalSpeed="26.10" duration="235.00" routeLength="1317.38" waitingTime="100.00" waitingCount="4" stopTime="0.00" timeLoss="143.33" rerouteNo="0" devices="tripinfo_15" vType="DEFAULT_VEHTYPE" speedFactor="0.94" vaporized=""/>
    <tripinfo id="16" depart="29.00" departLane="E0_0" departPos="5.10" departSpeed="7.06" departDelay="9.00" arrival="263.00" arrivalLane="E3_0" arrivalPos="90.46" arrivalSpeed="24.67" duration="234.00" routeLength="1317.38" waitingTime="98.00" waitingCount="4" stopTime="0.00" timeLoss="154.94" rerouteNo="0" devices="tripinfo_16" vType="DEFAULT_VEHTYPE" speedFactor="1.08" vaporized=""/>
    <tripinfo id="69" depart="151.00" departLane="E0_0" departPos="5.10" departSpeed="6.36" departDelay="63.00" arrival="270.00" arrivalLane="E3_0" arrivalPos="90.46" arrivalSpeed="24.57" duration="119.00" routeLength="1314.99" waitingTime="0.00" waitingCount="0" stopTime="0.00" timeLoss="20.36" rerouteNo="0" devices="tripinfo_69" vType="DEFAULT_VEHTYPE" speedFactor="0.83" vaporized=""/>
    <tripinfo id="70" depart="153.00" departLane="E0_0" departPos="5.10" departSpeed="6.84" departDelay="65.00" arrival="271.00" arrivalLane="E3_0" arrivalPos="90.46" arrivalSpeed="25.69" duration="118.00" routeLength="1314.99" waitingTime="0.00" waitingCount="0" stopTime="0.00" timeLoss="40.31" rerouteNo="0" devices="tripinfo_70" vType="DEFAULT_VEHTYPE" speedFactor="1.05" vaporized=""/>
    <tripinfo id="71" depart="155.00" departLane="E0_0" departPos="5.10" departSpeed="7.72" departDelay="67.00" arrival="273.00" arrivalLane="E3_0" arrivalPos="90.46" arrivalSpeed="26.52" duration="118.00" routeLength="1314.99" waitingTime="0.00" waitingCount="0" stopTime="0.00" timeLoss="40.23" rerouteNo="0" devices="tripinfo_71" vType="DEFAULT_VEHTYPE" speedFactor="1.06" vaporized=""/>
    <tripinfo id="72" depart="157.00" departLane="E0_0" departPos="5.10" departSpeed="6.91" departDelay="68.00" arrival="276.00" arrivalLane="E3_0" arrivalPos="90.46" arrivalSpeed="24.77" duration="119.00" routeLength="1314.99" waitingTime="0.00" waitingCount="0" stopTime="0.00" timeLoss="23.23" rerouteNo="0" devices="tripinfo_72" vType="DEFAULT_VEHTYPE" speedFactor="0.86" vaporized=""/>
    <tripinfo id="73" depart="159.00" departLane="E0_0" departPos="5.10" departSpeed="7.16" departDelay="70.00" arrival="277.00" arrivalLane="E3_0" arrivalPos="90.46" arrivalSpeed="26.41" duration="118.00" routeLength="1314.99" waitingTime="0.00" waitingCount="0" stopTime="0.00" timeLoss="27.23" rerouteNo="0" devices="tripinfo_73" vType="DEFAULT_VEHTYPE" speedFactor="0.91" vaporized=""/>
    <tripinfo id="74" depart="161.00" departLane="E0_0" departPos="5.10" departSpeed="7.16" departDelay="70.00" arrival="278.00" arrivalLane="E3_0" arrivalPos="90.46" arrivalSpeed="27.95" duration="117.00" routeLength="1314.99" waitingTime="0.00" waitingCount="0" stopTime="0.00" timeLoss="45.48" rerouteNo="0" devices="tripinfo_74" vType="DEFAULT_VEHTYPE" speedFactor="1.14" vaporized=""/>
    <tripinfo id="77" depart="168.00" departLane="E0_0" departPos="5.10" departSpeed="4.15" departDelay="77.00" arrival="280.00" arrivalLane="E3_0" arrivalPos="90.46" arrivalSpeed="28.31" duration="112.00" routeLength="1314.99" waitingTime="0.00" waitingCount="0" stopTime="0.00" timeLoss="26.92" rerouteNo="0" devices="tripinfo_77" vType="DEFAULT_VEHTYPE" speedFactor="0.97" vaporized=""/>
    <tripinfo id="78" depart="170.00" departLane="E0_0" departPos="5.10" departSpeed="2.01" departDelay="78.00" arrival="281.00" arrivalLane="E3_0" arrivalPos="90.46" arrivalSpeed="28.21" duration="111.00" routeLength="1314.99" waitingTime="0.00" waitingCount="0" stopTime="0.00" timeLoss="24.50" rerouteNo="0" devices="tripinfo_78" vType="DEFAULT_VEHTYPE" speedFactor="0.95" vaporized=""/>
    <tripinfo id="79" depart="173.00" departLane="E0_0" departPos="5.10" departSpeed="2.27" departDelay="79.00" arrival="283.00" arrivalLane="E3_0" arrivalPos="90.46" arrivalSpeed="32.17" duration="110.00" routeLength="1314.99" waitingTime="0.00" waitingCount="0" stopTime="0.00" timeLoss="32.81" rerouteNo="0" devices="tripinfo_79" vType="DEFAULT_VEHTYPE" speedFactor="1.07" vaporized=""/>
    <tripinfo id="81" depart="179.00" departLane="E0_0" departPos="5.10" departSpeed="2.01" departDelay="82.00" arrival="284.00" arrivalLane="E3_0" arrivalPos="90.46" arrivalSpeed="30.07" duration="105.00" routeLength="1314.99" waitingTime="0.00" waitingCount="0" stopTime="0.00" timeLoss="25.56" rerouteNo="0" devices="tripinfo_81" vType="DEFAULT_VEHTYPE" speedFactor="1.03" vaporized=""/>
    <tripinfo id="82" depart="182.00" departLane="E0_0" departPos="5.10" departSpeed="4.69" departDelay="83.00" arrival="287.00" arrivalLane="E3_0" arrivalPos="90.46" arrivalSpeed="28.99" duration="105.00" routeLength="1314.99" waitingTime="0.00" waitingCount="0" stopTime="0.00" timeLoss="20.85" rerouteNo="0" devices="tripinfo_82" vType="DEFAULT_VEHTYPE" speedFactor="0.98" vaporized=""/>
    <tripinfo id="84" depart="187.00" departLane="E0_0" departPos="5.10" departSpeed="5.98" departDelay="85.00" arrival="288.00" arrivalLane="E3_0" arrivalPos="90.46" arrivalSpeed="30.22" duration="101.00" routeLength="1314.99" waitingTime="0.00" waitingCount="0" stopTime="0.00" timeLoss="35.14" rerouteNo="0" devices="tripinfo_84" vType="DEFAULT_VEHTYPE" speedFactor="1.25" vaporized=""/>
    <tripinfo id="17" depart="31.00" departLane="E0_0" departPos="5.10" departSpeed="8.09" departDelay="9.00" arrival="297.00" arrivalLane="E3_0" arrivalPos="90.46" arrivalSpeed="25.19" duration="266.00" routeLength="1317.38" waitingTime="125.00" waitingCount="5" stopTime="0.00" timeLoss="181.33" rerouteNo="0" devices="tripinfo_17" vType="DEFAULT_VEHTYPE" speedFactor="1.01" vaporized=""/>
    <tripinfo id="85" depart="189.00" departLane="E0_0" departPos="5.10" departSpeed="6.10" departDelay="85.00" arrival="304.00" arrivalLane="E3_0" arrivalPos="90.46" arrivalSpeed="24.93" duration="115.00" routeLength="1314.99" waitingTime="0.00" waitingCount="0" stopTime="0.00" timeLoss="19.55" rerouteNo="0" devices="tripinfo_85" vType="DEFAULT_VEHTYPE" speedFactor="0.87" vaporized=""/>
    <tripinfo id="87" depart="193.00" departLane="E0_0" departPos="5.10" departSpeed="5.66" departDelay="89.00" arrival="305.00" arrivalLane="E3_0" arrivalPos="90.46" arrivalSpeed="27.09" duration="112.00" routeLength="1314.99" waitingTime="0.00" waitingCount="0" stopTime="0.00" timeLoss="37.12" rerouteNo="0" devices="tripinfo_87" vType="DEFAULT_VEHTYPE" speedFactor="1.10" vaporized=""/>
    <tripinfo id="88" depart="195.00" departLane="E0_0" departPos="5.10" departSpeed="1.15" departDelay="89.00" arrival="306.00" arrivalLane="E3_0" arrivalPos="90.46" arrivalSpeed="26.23" duration="111.00" routeLength="1314.99" waitingTime="0.00" waitingCount="0" stopTime="0.00" timeLoss="26.72" rerouteNo="0" devices="tripinfo_88" vType="DEFAULT_VEHTYPE" speedFactor="0.97" vaporized=""/>
    <tripinfo id="90" depart="201.00" departLane="E0_0" departPos="5.10" departSpeed="3.83" departDelay="94.00" arrival="308.00" arrivalLane="E3_0" arrivalPos="90.46" arrivalSpeed="28.13" duration="107.00" routeLength="1314.99" waitingTime="0.00" waitingCount="0" stopTime="0.00" timeLoss="34.32" rerouteNo="0" devices="tripinfo_90" vType="DEFAULT_VEHTYPE" speedFactor="1.13" vaporized=""/>
    <tripinfo id="91" depart="203.00" departLane="E0_0" departPos="5.10" departSpeed="0.90" departDelay="96.00" arrival="309.00" arrivalLane="E3_0" arrivalPos="90.46" arrivalSpeed="27.92" duration="106.00" routeLength="1314.99" waitingTime="0.00" waitingCount="0" stopTime="0.00" timeLoss="23.38" rerouteNo="0" devices="tripinfo_91" vType="DEFAULT_VEHTYPE" speedFactor="0.99" vaporized=""/>
    <tripinfo id="95" depart="213.00" departLane="E0_0" departPos="5.10" departSpeed="6.05" departDelay="103.00" arrival="312.00" arrivalLane="E3_0" arrivalPos="90.46" arrivalSpeed="29.57" duration="99.00" routeLength="1314.99" waitingTime="0.00" waitingCount="0" stopTime="0.00" timeLoss="18.76" rerouteNo="0" devices="tripinfo_95" vType="DEFAULT_VEHTYPE" speedFactor="1.02" vaporized=""/>
    <tripinfo id="97" depart="217.00" departLane="E0_0" departPos="5.10" departSpeed="4.84" departDelay="105.00" arrival="316.00" arrivalLane="E3_0" arrivalPos="90.46" arrivalSpeed="30.03" duration="99.00" routeLength="1314.99" waitingTime="0.00" waitingCount="0" stopTime="0.00" timeLoss="19.83" rerouteNo="0" devices="tripinfo_97" vType="DEFAULT_VEHTYPE" speedFactor="1.03" vaporized=""/>
    <tripinfo id="98" depart="219.00" departLane="E0_0" departPos="5.10" departSpeed="4.08" departDelay="104.00" arrival="321.00" arrivalLane="E3_0" arrivalPos="90.46" arrivalSpeed="28.94" duration="102.00" routeLength="1314.99" waitingTime="0.00" waitingCount="0" stopTime="0.00" timeLoss="20.26" rerouteNo="0" devices="tripinfo_98" vType="DEFAULT_VEHTYPE" speedFactor="1.00" vaporized=""/>
    <tripinfo id="99" depart="221.00" departLane="E0_0" departPos="5.10" departSpeed="2.08" departDelay="103.00" arrival="323.00" arrivalLane="E3_0" arrivalPos="90.46" arrivalSpeed="31.80" duration="102.00" routeLength="1314.99" waitingTime="0.00" waitingCount="0" stopTime="0.00" timeLoss="28.15" rerouteNo="0" devices="tripinfo_99" vType="DEFAULT_VEHTYPE" speedFactor="1.12" vaporized=""/>
    <tripinfo id="101" depart="227.00" departLane="E0_0" departPos="5.10" departSpeed="4.30" departDelay="108.00" arrival="327.00" arrivalLane="E3_0" arrivalPos="90.46" arrivalSpeed="30.19" duration="100.00" routeLength="1314.99" waitingTime="0.00" waitingCount="0" stopTime="0.00" timeLoss="20.06" rerouteNo="0" devices="tripinfo_101" vType="DEFAULT_VEHTYPE" speedFactor="1.03" vaporized=""/>
    <tripinfo id="103" depart="231.00" departLane="E0_0" departPos="5.10" departSpeed="1.12" departDelay="110.00" arrival="330.00" arrivalLane="E3_0" arrivalPos="90.46" arrivalSpeed="30.27" duration="99.00" routeLength="1314.99" waitingTime="0.00" waitingCount="0" stopTime="0.00" timeLoss="19.04" rerouteNo="0" devices="tripinfo_103" vType="DEFAULT_VEHTYPE" speedFactor="1.04" vaporized=""/>
    <tripinfo id="105" depart="236.00" departLane="E0_0" departPos="5.10" departSpeed="0.00" departDelay="115.00" arrival="337.00" arrivalLane="E3_0" arrivalPos="90.46" arrivalSpeed="29.35" duration="101.00" routeLength="1314.99" waitingTime="1.00" waitingCount="1" stopTime="0.00" timeLoss="20.18" rerouteNo="0" devices="tripinfo_105" vType="DEFAULT_VEHTYPE" speedFactor="1.01" vaporized=""/>