<?xml version="1.0" encoding="UTF-8"?>

<!-- generated on 2023-04-29 22:22:05 by Eclipse SUMO sumo Version 1.16.0
<configuration xmlns:xsi="http://www.w3.org/2001/XMLSchema-instance" xsi:noNamespaceSchemaLocation="http://sumo.dlr.de/xsd/sumoConfiguration.xsd">

    <input>
        <net-file value="C:\Users\Local_Man\Desktop\Stolen%20Music\school%20stuff%20for%20college\Semester%2015%20(UH%20Graduate%20School)\COSC%206364%20Nikolaos\SUMO_Project\COSC6364_Project\configurations\maps\4corners_neighborhoods.net.xml"/>
        <route-files value="./configurations/Rounds/4corners_neighborhoods.net.xml-test-4/Macroscopic_DUE/020/Trips_File_020.rou.xml"/>
    </input>

    <output>
        <summary-output value="./configurations/Rounds/4corners_neighborhoods.net.xml-test-4/Macroscopic_DUE/020/summary.xml"/>
        <tripinfo-output value="./configurations/Rounds/4corners_neighborhoods.net.xml-test-4/Macroscopic_DUE/020/trips.trips.xml"/>
        <statistic-output value="./configurations/Rounds/4corners_neighborhoods.net.xml-test-4/Macroscopic_DUE/020/stats_output.xml"/>
    </output>

    <time>
        <begin value="0"/>
    </time>

    <report>
        <log value="./configurations/Rounds/4corners_neighborhoods.net.xml-test-4/Macroscopic_DUE/020/log.sumo.log"/>
        <no-step-log value="true"/>
    </report>

    <gui_only>
        <quit-on-end value="true"/>
    </gui_only>

</configuration>
-->

<tripinfos xmlns:xsi="http://www.w3.org/2001/XMLSchema-instance" xsi:noNamespaceSchemaLocation="http://sumo.dlr.de/xsd/tripinfo_file.xsd">
    <tripinfo id="4" depart="3.00" departLane="597602753#0_0" departPos="5.10" departSpeed="23.24" departDelay="0.00" arrival="71.00" arrivalLane="-105681660#20_0" arrivalPos="806.12" arrivalSpeed="22.66" duration="68.00" routeLength="1387.70" waitingTime="0.00" waitingCount="0" stopTime="0.00" timeLoss="6.70" rerouteNo="0" devices="tripinfo_4" vType="DEFAULT_VEHTYPE" speedFactor="1.05" vaporized=""/>
    <tripinfo id="3" depart="2.00" departLane="918280985_0" departPos="5.10" departSpeed="15.04" departDelay="0.00" arrival="84.00" arrivalLane="15374898#0-AddedOffRampEdge_0" arrivalPos="100.00" arrivalSpeed="29.12" duration="82.00" routeLength="996.81" waitingTime="30.00" waitingCount="1" stopTime="0.00" timeLoss="45.12" rerouteNo="0" devices="tripinfo_3" vType="DEFAULT_VEHTYPE" speedFactor="1.08" vaporized=""/>
    <tripinfo id="5" depart="3.00" departLane="422688973_0" departPos="5.10" departSpeed="0.00" departDelay="0.00" arrival="89.00" arrivalLane="-597602753#1_0" arrivalPos="143.59" arrivalSpeed="25.96" duration="86.00" routeLength="1063.91" waitingTime="5.00" waitingCount="1" stopTime="0.00" timeLoss="25.76" rerouteNo="0" devices="tripinfo_5" vType="DEFAULT_VEHTYPE" speedFactor="1.20" vaporized=""/>
    <tripinfo id="9" depart="8.00" departLane="918280985_0" departPos="5.10" departSpeed="9.65" departDelay="0.00" arrival="93.00" arrivalLane="15374898#0-AddedOffRampEdge_0" arrivalPos="100.00" arrivalSpeed="24.84" duration="85.00" routeLength="996.81" waitingTime="26.00" waitingCount="1" stopTime="0.00" timeLoss="42.18" rerouteNo="0" devices="tripinfo_9" vType="DEFAULT_VEHTYPE" speedFactor="0.92" vaporized=""/>
    <tripinfo id="2" depart="0.00" departLane="597602756#0_0" departPos="5.10" departSpeed="21.67" departDelay="0.00" arrival="96.00" arrivalLane="918280984_0" arrivalPos="38.78" arrivalSpeed="13.43" duration="96.00" routeLength="1737.87" waitingTime="0.00" waitingCount="0" stopTime="0.00" timeLoss="14.71" rerouteNo="0" devices="tripinfo_2" vType="DEFAULT_VEHTYPE" speedFactor="0.98" vaporized=""/>
    <tripinfo id="39" depart="48.00" departLane="918280985_0" departPos="5.10" departSpeed="10.62" departDelay="0.00" arrival="101.00" arrivalLane="15374898#0-AddedOffRampEdge_0" arrivalPos="100.00" arrivalSpeed="23.10" duration="53.00" routeLength="996.81" waitingTime="0.00" waitingCount="0" stopTime="0.00" timeLoss="8.70" rerouteNo="0" devices="tripinfo_39" vType="DEFAULT_VEHTYPE" speedFactor="0.88" vaporized=""/>
    <tripinfo id="14" depart="12.00" departLane="-260998164#3_0" departPos="5.10" departSpeed="31.19" departDelay="0.00" arrival="111.00" arrivalLane="-318908683#1_0" arrivalPos="71.22" arrivalSpeed="14.92" duration="99.00" routeLength="955.07" waitingTime="56.00" waitingCount="1" stopTime="0.00" timeLoss="64.47" rerouteNo="0" devices="tripinfo_14" vType="DEFAULT_VEHTYPE" speedFactor="1.12" vaporized=""/>
    <tripinfo id="50" depart="60.00" departLane="-260998164#3_0" departPos="5.10" departSpeed="27.72" departDelay="0.00" arrival="112.00" arrivalLane="15374898#0-AddedOffRampEdge_0" arrivalPos="100.00" arrivalSpeed="26.91" duration="52.00" routeLength="1332.80" waitingTime="0.00" waitingCount="0" stopTime="0.00" timeLoss="3.41" rerouteNo="0" devices="tripinfo_50" vType="DEFAULT_VEHTYPE" speedFactor="1.00" vaporized=""/>
    <tripinfo id="24" depart="23.00" departLane="422688973_1" departPos="5.10" departSpeed="15.75" departDelay="0.00" arrival="113.00" arrivalLane="-597602753#1_0" arrivalPos="143.59" arrivalSpeed="19.44" duration="90.00" routeLength="1114.81" waitingTime="4.00" waitingCount="1" stopTime="0.00" timeLoss="16.16" rerouteNo="0" devices="tripinfo_24" vType="DEFAULT_VEHTYPE" speedFactor="0.89" vaporized=""/>
    <tripinfo id="28" depart="30.00" departLane="-260998164#3_0" departPos="5.10" departSpeed="27.64" departDelay="0.00" arrival="114.00" arrivalLane="-318908683#1_0" arrivalPos="71.22" arrivalSpeed="13.54" duration="84.00" routeLength="955.07" waitingTime="37.00" waitingCount="1" stopTime="0.00" timeLoss="44.80" rerouteNo="0" devices="tripinfo_28" vType="DEFAULT_VEHTYPE" speedFactor="0.99" vaporized=""/>
    <tripinfo id="13" depart="12.00" departLane="422685671#2_0" departPos="5.10" departSpeed="25.75" departDelay="0.00" arrival="115.00" arrivalLane="-105681660#20_0" arrivalPos="806.12" arrivalSpeed="20.25" duration="103.00" routeLength="1813.05" waitingTime="0.00" waitingCount="0" stopTime="0.00" timeLoss="16.22" rerouteNo="0" devices="tripinfo_13" vType="DEFAULT_VEHTYPE" speedFactor="0.93" vaporized=""/>
    <tripinfo id="18" depart="17.00" departLane="597602756#0_0" departPos="5.10" departSpeed="22.86" departDelay="0.00" arrival="116.00" arrivalLane="-318908683#1_0" arrivalPos="71.22" arrivalSpeed="13.60" duration="99.00" routeLength="1382.88" waitingTime="7.00" waitingCount="1" stopTime="0.00" timeLoss="25.46" rerouteNo="0" devices="tripinfo_18" vType="DEFAULT_VEHTYPE" speedFactor="1.03" vaporized=""/>
    <tripinfo id="54" depart="64.00" departLane="-260998164#3_0" departPos="5.10" departSpeed="26.33" departDelay="0.00" arrival="116.00" arrivalLane="15374898#0-AddedOffRampEdge_0" arrivalPos="100.00" arrivalSpeed="25.73" duration="52.00" routeLength="1332.80" waitingTime="0.00" waitingCount="0" stopTime="0.00" timeLoss="1.09" rerouteNo="0" devices="tripinfo_54" vType="DEFAULT_VEHTYPE" speedFactor="0.95" vaporized=""/>
    <tripinfo id="23" depart="21.00" departLane="918280985_0" departPos="5.10" departSpeed="7.50" departDelay="0.00" arrival="117.00" arrivalLane="-597602753#1_0" arrivalPos="143.59" arrivalSpeed="24.92" duration="96.00" routeLength="1123.56" waitingTime="17.00" waitingCount="1" stopTime="0.00" timeLoss="36.54" rerouteNo="0" devices="tripinfo_23" vType="DEFAULT_VEHTYPE" speedFactor="1.13" vaporized=""/>
    <tripinfo id="15" depart="13.00" departLane="105681660#12_0" departPos="5.10" departSpeed="20.80" departDelay="0.00" arrival="119.00" arrivalLane="-597602756#0_0" arrivalPos="325.99" arrivalSpeed="20.11" duration="106.00" routeLength="1877.95" waitingTime="0.00" waitingCount="0" stopTime="0.00" timeLoss="13.10" rerouteNo="0" devices="tripinfo_15" vType="DEFAULT_VEHTYPE" speedFactor="0.94" vaporized=""/>
    <tripinfo id="17" depart="16.00" departLane="918280985_0" departPos="5.10" departSpeed="10.50" departDelay="0.00" arrival="125.00" arrivalLane="-105681660#20_0" arrivalPos="806.12" arrivalSpeed="21.32" duration="109.00" routeLength="1360.98" waitingTime="20.00" waitingCount="1" stopTime="0.00" timeLoss="32.98" rerouteNo="0" devices="tripinfo_17" vType="DEFAULT_VEHTYPE" speedFactor="1.01" vaporized=""/>
    <tripinfo id="7" depart="7.00" departLane="918280985_0" departPos="5.10" departSpeed="13.03" departDelay="0.00" arrival="132.00" arrivalLane="-318908683#1_0" arrivalPos="71.22" arrivalSpeed="11.84" duration="125.00" routeLength="674.50" waitingTime="76.00" waitingCount="2" stopTime="0.00" timeLoss="92.51" rerouteNo="0" devices="tripinfo_7" vType="DEFAULT_VEHTYPE" speedFactor="0.94" vaporized=""/>
    <tripinfo id="36" depart="44.00" departLane="105681660#12_0" departPos="5.10" departSpeed="17.12" departDelay="0.00" arrival="132.00" arrivalLane="-597602753#1_0" arrivalPos="143.59" arrivalSpeed="16.33" duration="88.00" routeLength="1380.56" waitingTime="0.00" waitingCount="0" stopTime="0.00" timeLoss="6.25" rerouteNo="0" devices="tripinfo_36" vType="DEFAULT_VEHTYPE" speedFactor="0.77" vaporized=""/>
    <tripinfo id="20" depart="19.00" departLane="422688973_0" departPos="5.10" departSpeed="15.75" departDelay="0.00" arrival="133.00" arrivalLane="-318908683#1_0" arrivalPos="71.22" arrivalSpeed="12.81" duration="114.00" routeLength="684.23" waitingTime="65.00" waitingCount="2" stopTime="0.00" timeLoss="86.47" rerouteNo="0" devices="tripinfo_20" vType="DEFAULT_VEHTYPE" speedFactor="1.01" vaporized=""/>
    <tripinfo id="37" depart="45.00" departLane="918280985_0" departPos="5.10" departSpeed="9.06" departDelay="0.00" arrival="134.00" arrivalLane="-597602753#1_0" arrivalPos="143.59" arrivalSpeed="18.95" duration="89.00" routeLength="1123.56" waitingTime="0.00" waitingCount="0" stopTime="0.00" timeLoss="14.53" rerouteNo="0" devices="tripinfo_37" vType="DEFAULT_VEHTYPE" speedFactor="0.90" vaporized=""/>
    <tripinfo id="42" depart="52.00" departLane="597602756#0_0" departPos="5.10" departSpeed="24.46" departDelay="0.00" arrival="134.00" arrivalLane="260998164#0_0" arrivalPos="257.55" arrivalSpeed="30.17" duration="82.00" routeLength="1239.91" waitingTime="3.00" waitingCount="1" stopTime="0.00" timeLoss="15.25" rerouteNo="0" devices="tripinfo_42" vType="DEFAULT_VEHTYPE" speedFactor="1.10" vaporized=""/>
    <tripinfo id="35" depart="43.00" departLane="422688973_1" departPos="5.10" departSpeed="13.62" departDelay="0.00" arrival="135.00" arrivalLane="-318908683#1_0" arrivalPos="71.22" arrivalSpeed="13.56" duration="92.00" routeLength="684.23" waitingTime="41.00" waitingCount="2" stopTime="0.00" timeLoss="65.07" rerouteNo="0" devices="tripinfo_35" vType="DEFAULT_VEHTYPE" speedFactor="1.04" vaporized=""/>
    <tripinfo id="27" depart="30.00" departLane="318908683#0_0" departPos="5.10" departSpeed="13.45" departDelay="0.00" arrival="136.00" arrivalLane="-597602753#1_0" arrivalPos="143.59" arrivalSpeed="21.48" duration="106.00" routeLength="1208.14" waitingTime="24.00" waitingCount="1" stopTime="0.00" timeLoss="47.08" rerouteNo="0" devices="tripinfo_27" vType="DEFAULT_VEHTYPE" speedFactor="0.97" vaporized=""/>
    <tripinfo id="22" depart="20.00" departLane="597602756#0_0" departPos="5.10" departSpeed="21.82" departDelay="0.00" arrival="137.00" arrivalLane="-597602753#1_0" arrivalPos="143.59" arrivalSpeed="22.17" duration="117.00" routeLength="1638.96" waitingTime="12.00" waitingCount="2" stopTime="0.00" timeLoss="44.47" rerouteNo="0" devices="tripinfo_22" vType="DEFAULT_VEHTYPE" speedFactor="1.03" vaporized=""/>
    <tripinfo id="47" depart="56.00" departLane="-260998164#3_0" departPos="5.10" departSpeed="28.44" departDelay="0.00" arrival="137.00" arrivalLane="-597602756#0_0" arrivalPos="325.99" arrivalSpeed="22.48" duration="81.00" routeLength="1231.40" waitingTime="0.00" waitingCount="0" stopTime="0.00" timeLoss="10.39" rerouteNo="0" devices="tripinfo_47" vType="DEFAULT_VEHTYPE" speedFactor="1.02" vaporized=""/>
    <tripinfo id="8" depart="8.00" departLane="105681660#12_0" departPos="5.10" departSpeed="24.24" departDelay="0.00" arrival="141.00" arrivalLane="260998164#0_0" arrivalPos="257.55" arrivalSpeed="29.76" duration="133.00" routeLength="2169.41" waitingTime="12.00" waitingCount="1" stopTime="0.00" timeLoss="36.54" rerouteNo="0" devices="tripinfo_8" vType="DEFAULT_VEHTYPE" speedFactor="1.09" vaporized=""/>
    <tripinfo id="16" depart="16.00" departLane="105681660#12_0" departPos="5.10" departSpeed="24.06" departDelay="0.00" arrival="143.00" arrivalLane="260998164#0_0" arrivalPos="257.55" arrivalSpeed="29.74" duration="127.00" routeLength="2169.41" waitingTime="0.00" waitingCount="0" stopTime="0.00" timeLoss="29.12" rerouteNo="0" devices="tripinfo_16" vType="DEFAULT_VEHTYPE" speedFactor="1.08" vaporized=""/>
    <tripinfo id="81" depart="90.00" departLane="918280985_0" departPos="5.10" departSpeed="1.86" departDelay="2.00" arrival="145.00" arrivalLane="-318908683#1_0" arrivalPos="71.22" arrivalSpeed="13.91" duration="55.00" routeLength="674.50" waitingTime="10.00" waitingCount="1" stopTime="0.00" timeLoss="25.90" rerouteNo="0" devices="tripinfo_81" vType="DEFAULT_VEHTYPE" speedFactor="1.03" vaporized=""/>
    <tripinfo id="63" depart="72.00" departLane="918280985_0" departPos="5.10" departSpeed="14.12" departDelay="0.00" arrival="146.00" arrivalLane="15374898#0-AddedOffRampEdge_0" arrivalPos="100.00" arrivalSpeed="28.06" duration="74.00" routeLength="996.81" waitingTime="20.00" waitingCount="1" stopTime="0.00" timeLoss="35.62" rerouteNo="0" devices="tripinfo_63" vType="DEFAULT_VEHTYPE" speedFactor="1.02" vaporized=""/>
    <tripinfo id="10" depart="8.00" departLane="-260998164#3_0" departPos="5.10" departSpeed="28.25" departDelay="0.00" arrival="148.00" arrivalLane="422688976#1_0" arrivalPos="294.40" arrivalSpeed="27.66" duration="140.00" routeLength="1712.42" waitingTime="57.00" waitingCount="2" stopTime="0.00" timeLoss="77.86" rerouteNo="0" devices="tripinfo_10" vType="DEFAULT_VEHTYPE" speedFactor="1.02" vaporized=""/>
    <tripinfo id="11" depart="12.00" departLane="597602756#0_0" departPos="5.10" departSpeed="23.16" departDelay="0.00" arrival="148.00" arrivalLane="422688976#1_1" arrivalPos="294.40" arrivalSpeed="28.42" duration="136.00" routeLength="1985.14" waitingTime="26.00" waitingCount="2" stopTime="0.00" timeLoss="54.86" rerouteNo="0" devices="tripinfo_11" vType="DEFAULT_VEHTYPE" speedFactor="1.04" vaporized=""/>
    <tripinfo id="26" depart="29.00" departLane="422685671#2_0" departPos="5.10" departSpeed="31.16" departDelay="0.00" arrival="150.00" arrivalLane="422688976#1_1" arrivalPos="294.40" arrivalSpeed="29.92" duration="121.00" routeLength="1317.05" waitingTime="53.00" waitingCount="1" stopTime="0.00" timeLoss="76.25" rerouteNo="0" devices="tripinfo_26" vType="DEFAULT_VEHTYPE" speedFactor="1.12" vaporized=""/>
    <tripinfo id="29" depart="32.00" departLane="-260998164#3_0" departPos="5.10" departSpeed="28.33" departDelay="0.00" arrival="150.00" arrivalLane="-105681660#20_0" arrivalPos="806.12" arrivalSpeed="22.31" duration="118.00" routeLength="2198.46" waitingTime="2.00" waitingCount="1" stopTime="0.00" timeLoss="25.86" rerouteNo="0" devices="tripinfo_29" vType="DEFAULT_VEHTYPE" speedFactor="1.02" vaporized=""/>
    <tripinfo id="64" depart="73.00" departLane="-260998164#3_0" departPos="5.10" departSpeed="30.06" departDelay="0.00" arrival="150.00" arrivalLane="-597602756#0_0" arrivalPos="325.99" arrivalSpeed="22.99" duration="77.00" routeLength="1231.40" waitingTime="0.00" waitingCount="0" stopTime="0.00" timeLoss="9.87" rerouteNo="0" devices="tripinfo_64" vType="DEFAULT_VEHTYPE" speedFactor="1.08" vaporized=""/>
    <tripinfo id="75" depart="83.00" departLane="918280985_0" departPos="5.10" departSpeed="12.88" departDelay="0.00" arrival="153.00" arrivalLane="15374898#0-AddedOffRampEdge_0" arrivalPos="100.00" arrivalSpeed="29.50" duration="70.00" routeLength="996.81" waitingTime="13.00" waitingCount="1" stopTime="0.00" timeLoss="34.39" rerouteNo="0" devices="tripinfo_75" vType="DEFAULT_VEHTYPE" speedFactor="1.10" vaporized=""/>
    <tripinfo id="25" depart="27.00" departLane="597602756#0_0" departPos="5.10" departSpeed="25.65" departDelay="0.00" arrival="155.00" arrivalLane="422688976#1_1" arrivalPos="294.40" arrivalSpeed="31.47" duration="128.00" routeLength="1985.14" waitingTime="13.00" waitingCount="3" stopTime="0.00" timeLoss="54.33" rerouteNo="0" devices="tripinfo_25" vType="DEFAULT_VEHTYPE" speedFactor="1.15" vaporized=""/>
    <tripinfo id="12" depart="13.00" departLane="-260998164#3_0" departPos="5.10" departSpeed="25.02" departDelay="1.00" arrival="159.00" arrivalLane="918280984_0" arrivalPos="38.78" arrivalSpeed="11.22" duration="146.00" routeLength="1465.15" waitingTime="65.00" waitingCount="2" stopTime="0.00" timeLoss="82.23" rerouteNo="0" devices="tripinfo_12" vType="DEFAULT_VEHTYPE" speedFactor="0.90" vaporized=""/>
    <tripinfo id="41" depart="51.00" departLane="-260998164#3_0" departPos="5.10" departSpeed="29.55" departDelay="0.00" arrival="160.00" arrivalLane="918280984_0" arrivalPos="38.78" arrivalSpeed="14.56" duration="109.00" routeLength="1465.15" waitingTime="38.00" waitingCount="1" stopTime="0.00" timeLoss="55.77" rerouteNo="0" devices="tripinfo_41" vType="DEFAULT_VEHTYPE" speedFactor="1.06" vaporized=""/>
    <tripinfo id="82" depart="89.00" departLane="105681660#12_0" departPos="5.10" departSpeed="21.72" departDelay="0.00" arrival="160.00" arrivalLane="-597602753#1_0" arrivalPos="143.59" arrivalSpeed="20.57" duration="71.00" routeLength="1380.56" waitingTime="0.00" waitingCount="0" stopTime="0.00" timeLoss="6.05" rerouteNo="0" devices="tripinfo_82" vType="DEFAULT_VEHTYPE" speedFactor="0.98" vaporized=""/>
    <tripinfo id="31" depart="36.00" departLane="422688973_1" departPos="5.10" departSpeed="15.75" departDelay="0.00" arrival="161.00" arrivalLane="-597602753#1_0" arrivalPos="143.59" arrivalSpeed="22.87" duration="125.00" routeLength="1114.81" waitingTime="46.00" waitingCount="2" stopTime="0.00" timeLoss="65.42" rerouteNo="0" devices="tripinfo_31" vType="DEFAULT_VEHTYPE" speedFactor="1.10" vaporized=""/>
    <tripinfo id="19" depart="18.00" departLane="597602756#0_0" departPos="5.10" departSpeed="19.77" departDelay="0.00" arrival="163.00" arrivalLane="918280984_0" arrivalPos="38.78" arrivalSpeed="11.91" duration="145.00" routeLength="1737.87" waitingTime="30.00" waitingCount="2" stopTime="0.00" timeLoss="55.76" rerouteNo="0" devices="tripinfo_19" vType="DEFAULT_VEHTYPE" speedFactor="0.89" vaporized=""/>
    <tripinfo id="57" depart="69.00" departLane="422685671#2_1" departPos="5.10" departSpeed="29.33" departDelay="0.00" arrival="164.00" arrivalLane="918280984_0" arrivalPos="38.78" arrivalSpeed="14.03" duration="95.00" routeLength="1069.78" waitingTime="31.00" waitingCount="2" stopTime="0.00" timeLoss="53.98" rerouteNo="0" devices="tripinfo_57" vType="DEFAULT_VEHTYPE" speedFactor="1.06" vaporized=""/>
    <tripinfo id="53" depart="63.00" departLane="422685671#2_0" departPos="5.10" departSpeed="25.19" departDelay="0.00" arrival="166.00" arrivalLane="-597602756#0_0" arrivalPos="325.99" arrivalSpeed="19.74" duration="103.00" routeLength="1760.65" waitingTime="0.00" waitingCount="0" stopTime="0.00" timeLoss="9.21" rerouteNo="0" devices="tripinfo_53" vType="DEFAULT_VEHTYPE" speedFactor="0.91" vaporized=""/>
    <tripinfo id="76" depart="85.00" departLane="422688973_1" departPos="5.10" departSpeed="15.75" departDelay="0.00" arrival="166.00" arrivalLane="-597602753#1_0" arrivalPos="143.59" arrivalSpeed="25.31" duration="81.00" routeLength="1063.91" waitingTime="0.00" waitingCount="0" stopTime="0.00" timeLoss="18.16" rerouteNo="0" devices="tripinfo_76" vType="DEFAULT_VEHTYPE" speedFactor="1.14" vaporized=""/>
    <tripinfo id="48" depart="59.00" departLane="597602753#0_0" departPos="5.10" departSpeed="22.15" departDelay="0.00" arrival="167.00" arrivalLane="-597602756#0_0" arrivalPos="325.99" arrivalSpeed="21.66" duration="108.00" routeLength="1646.04" waitingTime="12.00" waitingCount="2" stopTime="0.00" timeLoss="32.24" rerouteNo="0" devices="tripinfo_48" vType="DEFAULT_VEHTYPE" speedFactor="1.00" vaporized=""/>
    <tripinfo id="32" depart="38.00" departLane="-260998164#3_0" departPos="5.10" departSpeed="23.20" departDelay="0.00" arrival="172.00" arrivalLane="-597602753#1_0" arrivalPos="143.59" arrivalSpeed="17.69" duration="134.00" routeLength="1969.75" waitingTime="15.00" waitingCount="2" stopTime="0.00" timeLoss="35.53" rerouteNo="0" devices="tripinfo_32" vType="DEFAULT_VEHTYPE" speedFactor="0.83" vaporized=""/>
    <tripinfo id="33" depart="41.00" departLane="422685671#2_0" departPos="5.10" departSpeed="28.62" departDelay="0.00" arrival="174.00" arrivalLane="-597602753#1_0" arrivalPos="143.59" arrivalSpeed="21.72" duration="133.00" routeLength="1584.34" waitingTime="41.00" waitingCount="1" stopTime="0.00" timeLoss="65.54" rerouteNo="0" devices="tripinfo_33" vType="DEFAULT_VEHTYPE" speedFactor="1.03" vaporized=""/>
    <tripinfo id="62" depart="72.00" departLane="422685671#2_1" departPos="5.10" departSpeed="30.19" departDelay="0.00" arrival="175.00" arrivalLane="-597602753#1_0" arrivalPos="143.59" arrivalSpeed="20.97" duration="103.00" routeLength="1584.34" waitingTime="13.00" waitingCount="1" stopTime="0.00" timeLoss="39.28" rerouteNo="0" devices="tripinfo_62" vType="DEFAULT_VEHTYPE" speedFactor="1.09" vaporized=""/>
    <tripinfo id="61" depart="72.00" departLane="422685671#2_0" departPos="5.10" departSpeed="24.93" departDelay="0.00" arrival="176.00" arrivalLane="-597602756#0_0" arrivalPos="325.99" arrivalSpeed="19.01" duration="104.00" routeLength="1760.65" waitingTime="0.00" waitingCount="0" stopTime="0.00" timeLoss="9.07" rerouteNo="0" devices="tripinfo_61" vType="DEFAULT_VEHTYPE" speedFactor="0.90" vaporized=""/>
    <tripinfo id="49" depart="60.00" departLane="597602753#0_0" departPos="5.10" departSpeed="19.70" departDelay="1.00" arrival="177.00" arrivalLane="918280984_0" arrivalPos="38.78" arrivalSpeed="14.83" duration="117.00" routeLength="1061.00" waitingTime="39.00" waitingCount="1" stopTime="0.00" timeLoss="52.52" rerouteNo="0" devices="tripinfo_49" vType="DEFAULT_VEHTYPE" speedFactor="1.12" vaporized=""/>
    <tripinfo id="78" depart="87.00" departLane="422685671#2_1" departPos="5.10" departSpeed="26.35" departDelay="0.00" arrival="177.00" arrivalLane="-597602753#1_0" arrivalPos="143.59" arrivalSpeed="20.31" duration="90.00" routeLength="1584.34" waitingTime="0.00" waitingCount="0" stopTime="0.00" timeLoss="16.35" rerouteNo="0" devices="tripinfo_78" vType="DEFAULT_VEHTYPE" speedFactor="0.95" vaporized=""/>
    <tripinfo id="72" depart="78.00" departLane="318908683#0_0" departPos="5.10" departSpeed="7.60" departDelay="0.00" arrival="178.00" arrivalLane="260998164#0_0" arrivalPos="257.55" arrivalSpeed="28.68" duration="100.00" routeLength="939.98" waitingTime="45.00" waitingCount="1" stopTime="0.00" timeLoss="63.85" rerouteNo="0" devices="tripinfo_72" vType="DEFAULT_VEHTYPE" speedFactor="1.06" vaporized=""/>
    <tripinfo id="87" depart="94.00" departLane="597602753#0_0" departPos="5.10" departSpeed="24.36" departDelay="0.00" arrival="179.00" arrivalLane="918280984_0" arrivalPos="38.78" arrivalSpeed="15.14" duration="85.00" routeLength="1061.00" waitingTime="6.00" waitingCount="1" stopTime="0.00" timeLoss="19.01" rerouteNo="0" devices="tripinfo_87" vType="DEFAULT_VEHTYPE" speedFactor="1.10" vaporized=""/>
    <tripinfo id="56" depart="68.00" departLane="105681660#12_0" departPos="5.10" departSpeed="20.62" departDelay="0.00" arrival="181.00" arrivalLane="918280984_0" arrivalPos="38.78" arrivalSpeed="11.99" duration="113.00" routeLength="1405.13" waitingTime="6.00" waitingCount="1" stopTime="0.00" timeLoss="26.22" rerouteNo="0" devices="tripinfo_56" vType="DEFAULT_VEHTYPE" speedFactor="0.93" vaporized=""/>
    <tripinfo id="46" depart="55.00" departLane="105681660#12_0" departPos="5.10" departSpeed="21.37" departDelay="0.00" arrival="186.00" arrivalLane="260998164#0_0" arrivalPos="257.55" arrivalSpeed="26.17" duration="131.00" routeLength="2169.41" waitingTime="0.00" waitingCount="0" stopTime="0.00" timeLoss="21.08" rerouteNo="0" devices="tripinfo_46" vType="DEFAULT_VEHTYPE" speedFactor="0.96" vaporized=""/>
    <tripinfo id="80" depart="88.00" departLane="422685671#2_1" departPos="5.10" departSpeed="29.80" departDelay="0.00" arrival="191.00" arrivalLane="-105681660#20_0" arrivalPos="806.12" arrivalSpeed="23.32" duration="103.00" routeLength="1813.05" waitingTime="0.00" waitingCount="0" stopTime="0.00" timeLoss="27.06" rerouteNo="0" devices="tripinfo_80" vType="DEFAULT_VEHTYPE" speedFactor="1.07" vaporized=""/>
    <tripinfo id="59" depart="71.00" departLane="105681660#12_0" departPos="5.10" departSpeed="22.94" departDelay="0.00" arrival="193.00" arrivalLane="422688976#1_0" arrivalPos="294.40" arrivalSpeed="28.40" duration="122.00" routeLength="1630.66" waitingTime="4.00" waitingCount="1" stopTime="0.00" timeLoss="37.37" rerouteNo="0" devices="tripinfo_59" vType="DEFAULT_VEHTYPE" speedFactor="1.03" vaporized=""/>
    <tripinfo id="66" depart="75.00" departLane="422688973_0" departPos="5.10" departSpeed="0.00" departDelay="0.00" arrival="193.00" arrivalLane="-597602753#1_0" arrivalPos="143.59" arrivalSpeed="22.10" duration="118.00" routeLength="1114.81" waitingTime="28.00" waitingCount="2" stopTime="0.00" timeLoss="53.27" rerouteNo="0" devices="tripinfo_66" vType="DEFAULT_VEHTYPE" speedFactor="1.01" vaporized=""/>
    <tripinfo id="65" depart="73.00" departLane="105681660#12_0" departPos="5.10" departSpeed="21.68" departDelay="0.00" arrival="196.00" arrivalLane="422688976#1_0" arrivalPos="294.40" arrivalSpeed="25.81" duration="123.00" routeLength="1630.66" waitingTime="2.00" waitingCount="1" stopTime="0.00" timeLoss="33.37" rerouteNo="0" devices="tripinfo_65" vType="DEFAULT_VEHTYPE" speedFactor="0.98" vaporized=""/>
    <tripinfo id="34" depart="43.00" departLane="422688973_0" departPos="5.10" departSpeed="0.00" departDelay="0.00" arrival="197.00" arrivalLane="-105681660#20_0" arrivalPos="806.12" arrivalSpeed="22.79" duration="154.00" routeLength="1352.23" waitingTime="61.00" waitingCount="2" stopTime="0.00" timeLoss="83.21" rerouteNo="0" devices="tripinfo_34" vType="DEFAULT_VEHTYPE" speedFactor="1.07" vaporized=""/>
    <tripinfo id="77" depart="86.00" departLane="918280985_0" departPos="5.10" departSpeed="10.42" departDelay="0.00" arrival="198.00" arrivalLane="-597602753#1_0" arrivalPos="143.59" arrivalSpeed="21.04" duration="112.00" routeLength="1123.56" waitingTime="20.00" waitingCount="2" stopTime="0.00" timeLoss="42.31" rerouteNo="0" devices="tripinfo_77" vType="DEFAULT_VEHTYPE" speedFactor="0.97" vaporized=""/>
    <tripinfo id="43" depart="52.00" departLane="422688973_0" departPos="5.10" departSpeed="0.00" departDelay="0.00" arrival="201.00" arrivalLane="-105681660#20_0" arrivalPos="806.12" arrivalSpeed="21.75" duration="149.00" routeLength="1352.23" waitingTime="52.00" waitingCount="2" stopTime="0.00" timeLoss="74.27" rerouteNo="0" devices="tripinfo_43" vType="DEFAULT_VEHTYPE" speedFactor="1.00" vaporized=""/>
    <tripinfo id="92" depart="103.00" departLane="-260998164#3_0" departPos="5.10" departSpeed="27.14" departDelay="0.00" arrival="203.00" arrivalLane="15374898#0-AddedOffRampEdge_0" arrivalPos="100.00" arrivalSpeed="27.02" duration="100.00" routeLength="1332.80" waitingTime="39.00" waitingCount="1" stopTime="0.00" timeLoss="50.50" rerouteNo="0" devices="tripinfo_92" vType="DEFAULT_VEHTYPE" speedFactor="0.98" vaporized=""/>
    <tripinfo id="45" depart="53.00" departLane="422688973_0" departPos="5.10" departSpeed="13.62" departDelay="0.00" arrival="204.00" arrivalLane="260998164#0_0" arrivalPos="257.55" arrivalSpeed="24.18" duration="151.00" routeLength="1470.06" waitingTime="60.00" waitingCount="2" stopTime="0.00" timeLoss="90.17" rerouteNo="0" devices="tripinfo_45" vType="DEFAULT_VEHTYPE" speedFactor="0.90" vaporized=""/>
    <tripinfo id="96" depart="131.00" departLane="318908683#0_0" departPos="5.10" departSpeed="0.05" departDelay="23.00" arrival="204.00" arrivalLane="422688976#1_1" arrivalPos="294.40" arrivalSpeed="23.34" duration="73.00" routeLength="940.85" waitingTime="17.00" waitingCount="2" stopTime="0.00" timeLoss="31.89" rerouteNo="0" devices="tripinfo_96" vType="DEFAULT_VEHTYPE" speedFactor="0.89" vaporized=""/>
    <tripinfo id="6" depart="4.00" departLane="597602753#0_0" departPos="5.10" departSpeed="20.69" departDelay="0.00" arrival="205.00" arrivalLane="15374898#0-AddedOffRampEdge_0" arrivalPos="100.00" arrivalSpeed="28.91" duration="201.00" routeLength="1981.16" waitingTime="77.00" waitingCount="1" stopTime="0.00" timeLoss="110.74" rerouteNo="0" devices="tripinfo_6" vType="DEFAULT_VEHTYPE" speedFactor="1.08" vaporized=""/>
    <tripinfo id="51" depart="61.00" departLane="422688973_1" departPos="5.10" departSpeed="11.16" departDelay="0.00" arrival="205.00" arrivalLane="260998164#0_0" arrivalPos="257.55" arrivalSpeed="27.18" duration="144.00" routeLength="1470.06" waitingTime="57.00" waitingCount="1" stopTime="0.00" timeLoss="88.76" rerouteNo="0" devices="tripinfo_51" vType="DEFAULT_VEHTYPE" speedFactor="0.99" vaporized=""/>
    <tripinfo id="21" depart="20.00" departLane="597602753#0_0" departPos="5.10" departSpeed="19.39" departDelay="0.00" arrival="206.00" arrivalLane="15374898#0-AddedOffRampEdge_1" arrivalPos="100.00" arrivalSpeed="24.06" duration="186.00" routeLength="1981.16" waitingTime="45.00" waitingCount="2" stopTime="0.00" timeLoss="75.82" rerouteNo="0" devices="tripinfo_21" vType="DEFAULT_VEHTYPE" speedFactor="0.87" vaporized=""/>
    <tripinfo id="74" depart="82.00" departLane="318908683#0_0" departPos="5.10" departSpeed="4.70" departDelay="0.00" arrival="206.00" arrivalLane="422688976#1_0" arrivalPos="294.40" arrivalSpeed="26.84" duration="124.00" routeLength="940.85" waitingTime="64.00" waitingCount="2" stopTime="0.00" timeLoss="91.21" rerouteNo="0" devices="tripinfo_74" vType="DEFAULT_VEHTYPE" speedFactor="1.14" vaporized=""/>