<?xml version="1.0" encoding="UTF-8"?>

<!-- generated on 2023-04-30 00:41:51 by Eclipse SUMO sumo Version 1.16.0
<configuration xmlns:xsi="http://www.w3.org/2001/XMLSchema-instance" xsi:noNamespaceSchemaLocation="http://sumo.dlr.de/xsd/sumoConfiguration.xsd">

    <input>
        <net-file value="C:\Users\Local_Man\Desktop\Stolen%20Music\school%20stuff%20for%20college\Semester%2015%20(UH%20Graduate%20School)\COSC%206364%20Nikolaos\SUMO_Project\COSC6364_Project\configurations\maps\Braess_Homebrew_fixed1.net.xml"/>
        <route-files value="./configurations/Rounds/Braess_Homebrew_fixed1.net.xml-test-4/Macroscopic_DUE/002/Trips_File_002.rou.xml"/>
    </input>

    <output>
        <summary-output value="./configurations/Rounds/Braess_Homebrew_fixed1.net.xml-test-4/Macroscopic_DUE/002/summary.xml"/>
        <tripinfo-output value="./configurations/Rounds/Braess_Homebrew_fixed1.net.xml-test-4/Macroscopic_DUE/002/trips.trips.xml"/>
        <statistic-output value="./configurations/Rounds/Braess_Homebrew_fixed1.net.xml-test-4/Macroscopic_DUE/002/stats_output.xml"/>
    </output>

    <time>
        <begin value="0"/>
    </time>

    <report>
        <log value="./configurations/Rounds/Braess_Homebrew_fixed1.net.xml-test-4/Macroscopic_DUE/002/log.sumo.log"/>
        <no-step-log value="true"/>
    </report>

    <gui_only>
        <quit-on-end value="true"/>
    </gui_only>

</configuration>
-->

<tripinfos xmlns:xsi="http://www.w3.org/2001/XMLSchema-instance" xsi:noNamespaceSchemaLocation="http://sumo.dlr.de/xsd/tripinfo_file.xsd">
    <tripinfo id="2" depart="4.00" departLane="E0_0" departPos="5.10" departSpeed="19.50" departDelay="0.00" arrival="97.00" arrivalLane="E3_0" arrivalPos="90.46" arrivalSpeed="28.39" duration="93.00" routeLength="1314.99" waitingTime="0.00" waitingCount="0" stopTime="0.00" timeLoss="9.23" rerouteNo="0" devices="tripinfo_2" vType="DEFAULT_VEHTYPE" speedFactor="0.98" vaporized=""/>
    <tripinfo id="4" depart="10.00" departLane="E0_0" departPos="5.10" departSpeed="24.01" departDelay="0.00" arrival="99.00" arrivalLane="E3_0" arrivalPos="90.46" arrivalSpeed="32.02" duration="89.00" routeLength="1314.99" waitingTime="0.00" waitingCount="0" stopTime="0.00" timeLoss="20.16" rerouteNo="0" devices="tripinfo_4" vType="DEFAULT_VEHTYPE" speedFactor="1.20" vaporized=""/>
    <tripinfo id="5" depart="11.00" departLane="E0_0" departPos="5.10" departSpeed="20.92" departDelay="1.00" arrival="102.00" arrivalLane="E3_0" arrivalPos="90.46" arrivalSpeed="31.12" duration="91.00" routeLength="1314.99" waitingTime="0.00" waitingCount="0" stopTime="0.00" timeLoss="11.86" rerouteNo="0" devices="tripinfo_5" vType="DEFAULT_VEHTYPE" speedFactor="1.05" vaporized=""/>
    <tripinfo id="7" depart="13.00" departLane="E0_0" departPos="5.10" departSpeed="16.81" departDelay="2.00" arrival="114.00" arrivalLane="E3_0" arrivalPos="90.46" arrivalSpeed="27.34" duration="101.00" routeLength="1314.99" waitingTime="0.00" waitingCount="0" stopTime="0.00" timeLoss="12.87" rerouteNo="0" devices="tripinfo_7" vType="DEFAULT_VEHTYPE" speedFactor="0.94" vaporized=""/>
    <tripinfo id="9" depart="15.00" departLane="E0_0" departPos="5.10" departSpeed="10.39" departDelay="1.00" arrival="115.00" arrivalLane="E3_0" arrivalPos="90.46" arrivalSpeed="29.79" duration="100.00" routeLength="1314.99" waitingTime="0.00" waitingCount="0" stopTime="0.00" timeLoss="24.60" rerouteNo="0" devices="tripinfo_9" vType="DEFAULT_VEHTYPE" speedFactor="1.09" vaporized=""/>
    <tripinfo id="10" depart="17.00" departLane="E0_0" departPos="5.10" departSpeed="11.85" departDelay="0.00" arrival="124.00" arrivalLane="E3_0" arrivalPos="90.46" arrivalSpeed="26.40" duration="107.00" routeLength="1314.99" waitingTime="0.00" waitingCount="0" stopTime="0.00" timeLoss="17.43" rerouteNo="0" devices="tripinfo_10" vType="DEFAULT_VEHTYPE" speedFactor="0.92" vaporized=""/>
    <tripinfo id="13" depart="21.00" departLane="E0_0" departPos="5.10" departSpeed="4.81" departDelay="2.00" arrival="130.00" arrivalLane="E3_0" arrivalPos="90.46" arrivalSpeed="27.60" duration="109.00" routeLength="1314.99" waitingTime="0.00" waitingCount="0" stopTime="0.00" timeLoss="19.92" rerouteNo="0" devices="tripinfo_13" vType="DEFAULT_VEHTYPE" speedFactor="0.93" vaporized=""/>
    <tripinfo id="15" depart="25.00" departLane="E0_0" departPos="5.10" departSpeed="3.88" departDelay="5.00" arrival="134.00" arrivalLane="E3_0" arrivalPos="90.46" arrivalSpeed="27.12" duration="109.00" routeLength="1314.99" waitingTime="0.00" waitingCount="0" stopTime="0.00" timeLoss="21.45" rerouteNo="0" devices="tripinfo_15" vType="DEFAULT_VEHTYPE" speedFactor="0.94" vaporized=""/>
    <tripinfo id="16" depart="27.00" departLane="E0_0" departPos="5.10" departSpeed="4.47" departDelay="7.00" arrival="136.00" arrivalLane="E3_0" arrivalPos="90.46" arrivalSpeed="31.50" duration="109.00" routeLength="1314.99" waitingTime="0.00" waitingCount="0" stopTime="0.00" timeLoss="32.62" rerouteNo="0" devices="tripinfo_16" vType="DEFAULT_VEHTYPE" speedFactor="1.08" vaporized=""/>
    <tripinfo id="17" depart="29.00" departLane="E0_0" departPos="5.10" departSpeed="1.80" departDelay="7.00" arrival="137.00" arrivalLane="E3_0" arrivalPos="90.46" arrivalSpeed="29.51" duration="108.00" routeLength="1314.99" waitingTime="0.00" waitingCount="0" stopTime="0.00" timeLoss="26.80" rerouteNo="0" devices="tripinfo_17" vType="DEFAULT_VEHTYPE" speedFactor="1.01" vaporized=""/>
    <tripinfo id="18" depart="32.00" departLane="E0_0" departPos="5.10" departSpeed="4.95" departDelay="9.00" arrival="139.00" arrivalLane="E3_0" arrivalPos="90.46" arrivalSpeed="30.72" duration="107.00" routeLength="1314.99" waitingTime="0.00" waitingCount="0" stopTime="0.00" timeLoss="26.66" rerouteNo="0" devices="tripinfo_18" vType="DEFAULT_VEHTYPE" speedFactor="1.03" vaporized=""/>
    <tripinfo id="19" depart="34.00" departLane="E0_0" departPos="5.10" departSpeed="4.95" departDelay="10.00" arrival="148.00" arrivalLane="E3_0" arrivalPos="90.46" arrivalSpeed="26.43" duration="114.00" routeLength="1314.99" waitingTime="0.00" waitingCount="0" stopTime="0.00" timeLoss="21.58" rerouteNo="0" devices="tripinfo_19" vType="DEFAULT_VEHTYPE" speedFactor="0.89" vaporized=""/>
    <tripinfo id="25" depart="48.00" departLane="E0_0" departPos="5.10" departSpeed="3.20" departDelay="18.00" arrival="149.00" arrivalLane="E3_0" arrivalPos="90.46" arrivalSpeed="27.62" duration="101.00" routeLength="1314.99" waitingTime="0.00" waitingCount="0" stopTime="0.00" timeLoss="30.44" rerouteNo="0" devices="tripinfo_25" vType="DEFAULT_VEHTYPE" speedFactor="1.15" vaporized=""/>
    <tripinfo id="26" depart="51.00" departLane="E0_0" departPos="5.10" departSpeed="6.35" departDelay="19.00" arrival="151.00" arrivalLane="E3_0" arrivalPos="90.46" arrivalSpeed="29.82" duration="100.00" routeLength="1314.99" waitingTime="0.00" waitingCount="0" stopTime="0.00" timeLoss="26.65" rerouteNo="0" devices="tripinfo_26" vType="DEFAULT_VEHTYPE" speedFactor="1.12" vaporized=""/>
    <tripinfo id="27" depart="53.00" departLane="E0_0" departPos="5.10" departSpeed="6.47" departDelay="21.00" arrival="157.00" arrivalLane="E3_0" arrivalPos="90.46" arrivalSpeed="28.66" duration="104.00" routeLength="1314.99" waitingTime="0.00" waitingCount="0" stopTime="0.00" timeLoss="21.03" rerouteNo="0" devices="tripinfo_27" vType="DEFAULT_VEHTYPE" speedFactor="0.99" vaporized=""/>
    <tripinfo id="29" depart="57.00" departLane="E0_0" departPos="5.10" departSpeed="1.20" departDelay="24.00" arrival="158.00" arrivalLane="E3_0" arrivalPos="90.46" arrivalSpeed="30.05" duration="101.00" routeLength="1314.99" waitingTime="0.00" waitingCount="0" stopTime="0.00" timeLoss="20.83" rerouteNo="0" devices="tripinfo_29" vType="DEFAULT_VEHTYPE" speedFactor="1.02" vaporized=""/>
    <tripinfo id="30" depart="61.00" departLane="E0_0" departPos="5.10" departSpeed="6.65" departDelay="27.00" arrival="167.00" arrivalLane="E3_0" arrivalPos="90.46" arrivalSpeed="27.77" duration="106.00" routeLength="1314.99" waitingTime="0.00" waitingCount="0" stopTime="0.00" timeLoss="17.96" rerouteNo="0" devices="tripinfo_30" vType="DEFAULT_VEHTYPE" speedFactor="0.94" vaporized=""/>
    <tripinfo id="31" depart="63.00" departLane="E0_0" departPos="5.10" departSpeed="7.26" departDelay="29.00" arrival="168.00" arrivalLane="E3_0" arrivalPos="90.46" arrivalSpeed="29.39" duration="105.00" routeLength="1314.99" waitingTime="0.00" waitingCount="0" stopTime="0.00" timeLoss="30.19" rerouteNo="0" devices="tripinfo_31" vType="DEFAULT_VEHTYPE" speedFactor="1.10" vaporized=""/>
    <tripinfo id="3" depart="5.00" departLane="E0_0" departPos="5.10" departSpeed="16.96" departDelay="1.00" arrival="178.00" arrivalLane="E3_0" arrivalPos="90.46" arrivalSpeed="25.07" duration="173.00" routeLength="1317.38" waitingTime="70.00" waitingCount="1" stopTime="0.00" timeLoss="93.56" rerouteNo="0" devices="tripinfo_3" vType="DEFAULT_VEHTYPE" speedFactor="1.08" vaporized=""/>
    <tripinfo id="32" depart="65.00" departLane="E0_0" departPos="5.10" departSpeed="5.98" departDelay="30.00" arrival="182.00" arrivalLane="E3_0" arrivalPos="90.46" arrivalSpeed="24.06" duration="117.00" routeLength="1314.99" waitingTime="0.00" waitingCount="0" stopTime="0.00" timeLoss="19.03" rerouteNo="0" devices="tripinfo_32" vType="DEFAULT_VEHTYPE" speedFactor="0.83" vaporized=""/>
    <tripinfo id="33" depart="67.00" departLane="E0_0" departPos="5.10" departSpeed="1.54" departDelay="32.00" arrival="184.00" arrivalLane="E3_0" arrivalPos="90.46" arrivalSpeed="29.47" duration="117.00" routeLength="1314.99" waitingTime="0.00" waitingCount="0" stopTime="0.00" timeLoss="37.07" rerouteNo="0" devices="tripinfo_33" vType="DEFAULT_VEHTYPE" speedFactor="1.03" vaporized=""/>
    <tripinfo id="34" depart="70.00" departLane="E0_0" departPos="5.10" departSpeed="2.07" departDelay="34.00" arrival="185.00" arrivalLane="E3_0" arrivalPos="90.46" arrivalSpeed="29.19" duration="115.00" routeLength="1314.99" waitingTime="0.00" waitingCount="0" stopTime="0.00" timeLoss="37.98" rerouteNo="0" devices="tripinfo_34" vType="DEFAULT_VEHTYPE" speedFactor="1.07" vaporized=""/>
    <tripinfo id="6" depart="12.00" departLane="E0_0" departPos="5.10" departSpeed="18.89" departDelay="2.00" arrival="195.00" arrivalLane="E3_0" arrivalPos="90.46" arrivalSpeed="26.17" duration="183.00" routeLength="1317.38" waitingTime="76.00" waitingCount="2" stopTime="0.00" timeLoss="103.06" rerouteNo="0" devices="tripinfo_6" vType="DEFAULT_VEHTYPE" speedFactor="1.08" vaporized=""/>
    <tripinfo id="36" depart="75.00" departLane="E0_0" departPos="5.10" departSpeed="3.77" departDelay="35.00" arrival="201.00" arrivalLane="E3_0" arrivalPos="90.46" arrivalSpeed="22.92" duration="126.00" routeLength="1314.99" waitingTime="0.00" waitingCount="0" stopTime="0.00" timeLoss="19.57" rerouteNo="0" devices="tripinfo_36" vType="DEFAULT_VEHTYPE" speedFactor="0.77" vaporized=""/>
    <tripinfo id="38" depart="80.00" departLane="E0_0" departPos="5.10" departSpeed="5.04" departDelay="34.00" arrival="203.00" arrivalLane="E3_0" arrivalPos="90.46" arrivalSpeed="25.58" duration="123.00" routeLength="1314.99" waitingTime="0.00" waitingCount="0" stopTime="0.00" timeLoss="42.17" rerouteNo="0" devices="tripinfo_38" vType="DEFAULT_VEHTYPE" speedFactor="1.02" vaporized=""/>
    <tripinfo id="39" depart="82.00" departLane="E0_0" departPos="5.10" departSpeed="4.05" departDelay="36.00" arrival="204.00" arrivalLane="E3_0" arrivalPos="90.46" arrivalSpeed="25.25" duration="122.00" routeLength="1314.99" waitingTime="0.00" waitingCount="0" stopTime="0.00" timeLoss="28.45" rerouteNo="0" devices="tripinfo_39" vType="DEFAULT_VEHTYPE" speedFactor="0.88" vaporized=""/>
    <tripinfo id="40" depart="84.00" departLane="E0_0" departPos="5.10" departSpeed="1.56" departDelay="33.00" arrival="206.00" arrivalLane="E3_0" arrivalPos="90.46" arrivalSpeed="28.88" duration="122.00" routeLength="1314.99" waitingTime="0.00" waitingCount="0" stopTime="0.00" timeLoss="44.11" rerouteNo="0" devices="tripinfo_40" vType="DEFAULT_VEHTYPE" speedFactor="1.06" vaporized=""/>
    <tripinfo id="41" depart="87.00" departLane="E0_0" departPos="5.10" departSpeed="3.27" departDelay="35.00" arrival="207.00" arrivalLane="E3_0" arrivalPos="90.46" arrivalSpeed="27.80" duration="120.00" routeLength="1314.99" waitingTime="0.00" waitingCount="0" stopTime="0.00" timeLoss="49.49" rerouteNo="0" devices="tripinfo_41" vType="DEFAULT_VEHTYPE" speedFactor="1.17" vaporized=""/>
    <tripinfo id="42" depart="89.00" departLane="E0_0" departPos="5.10" departSpeed="0.38" departDelay="36.00" arrival="208.00" arrivalLane="E3_0" arrivalPos="90.46" arrivalSpeed="27.91" duration="119.00" routeLength="1314.99" waitingTime="0.00" waitingCount="0" stopTime="0.00" timeLoss="40.70" rerouteNo="0" devices="tripinfo_42" vType="DEFAULT_VEHTYPE" speedFactor="1.05" vaporized=""/>
    <tripinfo id="43" depart="93.00" departLane="E0_0" departPos="5.10" departSpeed="6.40" departDelay="38.00" arrival="210.00" arrivalLane="E3_0" arrivalPos="90.46" arrivalSpeed="29.44" duration="117.00" routeLength="1314.99" waitingTime="0.00" waitingCount="0" stopTime="0.00" timeLoss="34.67" rerouteNo="0" devices="tripinfo_43" vType="DEFAULT_VEHTYPE" speedFactor="1.00" vaporized=""/>
    <tripinfo id="44" depart="95.00" departLane="E0_0" departPos="5.10" departSpeed="6.91" departDelay="40.00" arrival="211.00" arrivalLane="E3_0" arrivalPos="90.46" arrivalSpeed="30.72" duration="116.00" routeLength="1314.99" waitingTime="0.00" waitingCount="0" stopTime="0.00" timeLoss="41.17" rerouteNo="0" devices="tripinfo_44" vType="DEFAULT_VEHTYPE" speedFactor="1.10" vaporized=""/>
    <tripinfo id="45" depart="97.00" departLane="E0_0" departPos="5.10" departSpeed="7.58" departDelay="41.00" arrival="213.00" arrivalLane="E3_0" arrivalPos="90.46" arrivalSpeed="25.76" duration="116.00" routeLength="1314.99" waitingTime="0.00" waitingCount="0" stopTime="0.00" timeLoss="24.39" rerouteNo="0" devices="tripinfo_45" vType="DEFAULT_VEHTYPE" speedFactor="0.90" vaporized=""/>
    <tripinfo id="46" depart="99.00" departLane="E0_0" departPos="5.10" departSpeed="8.56" departDelay="43.00" arrival="215.00" arrivalLane="E3_0" arrivalPos="90.46" arrivalSpeed="28.45" duration="116.00" routeLength="1314.99" waitingTime="0.00" waitingCount="0" stopTime="0.00" timeLoss="30.00" rerouteNo="0" devices="tripinfo_46" vType="DEFAULT_VEHTYPE" speedFactor="0.96" vaporized=""/>
    <tripinfo id="49" depart="105.00" departLane="E0_0" departPos="5.10" departSpeed="3.64" departDelay="43.00" arrival="216.00" arrivalLane="E3_0" arrivalPos="90.46" arrivalSpeed="29.38" duration="111.00" routeLength="1314.99" waitingTime="0.00" waitingCount="0" stopTime="0.00" timeLoss="37.12" rerouteNo="0" devices="tripinfo_49" vType="DEFAULT_VEHTYPE" speedFactor="1.12" vaporized=""/>
    <tripinfo id="50" depart="107.00" departLane="E0_0" departPos="5.10" departSpeed="0.61" departDelay="43.00" arrival="217.00" arrivalLane="E3_0" arrivalPos="90.46" arrivalSpeed="28.84" duration="110.00" routeLength="1314.99" waitingTime="0.00" waitingCount="0" stopTime="0.00" timeLoss="27.66" rerouteNo="0" devices="tripinfo_50" vType="DEFAULT_VEHTYPE" speedFactor="1.00" vaporized=""/>
    <tripinfo id="51" depart="110.00" departLane="E0_0" departPos="5.10" departSpeed="0.41" departDelay="43.00" arrival="219.00" arrivalLane="E3_0" arrivalPos="90.46" arrivalSpeed="28.99" duration="109.00" routeLength="1314.99" waitingTime="0.00" waitingCount="0" stopTime="0.00" timeLoss="25.26" rerouteNo="0" devices="tripinfo_51" vType="DEFAULT_VEHTYPE" speedFactor="0.99" vaporized=""/>
    <tripinfo id="53" depart="116.00" departLane="E0_0" departPos="5.10" departSpeed="6.41" departDelay="47.00" arrival="229.00" arrivalLane="E3_0" arrivalPos="90.46" arrivalSpeed="27.10" duration="113.00" routeLength="1314.99" waitingTime="0.00" waitingCount="0" stopTime="0.00" timeLoss="22.02" rerouteNo="0" devices="tripinfo_53" vType="DEFAULT_VEHTYPE" speedFactor="0.91" vaporized=""/>
    <tripinfo id="54" depart="118.00" departLane="E0_0" departPos="5.10" departSpeed="6.48" departDelay="44.00" arrival="230.00" arrivalLane="E3_0" arrivalPos="90.46" arrivalSpeed="27.14" duration="112.00" routeLength="1314.99" waitingTime="0.00" waitingCount="0" stopTime="0.00" timeLoss="25.35" rerouteNo="0" devices="tripinfo_54" vType="DEFAULT_VEHTYPE" speedFactor="0.95" vaporized=""/>
    <tripinfo id="56" depart="122.00" departLane="E0_0" departPos="5.10" departSpeed="7.52" departDelay="47.00" arrival="235.00" arrivalLane="E3_0" arrivalPos="90.46" arrivalSpeed="26.57" duration="113.00" routeLength="1314.99" waitingTime="0.00" waitingCount="0" stopTime="0.00" timeLoss="24.02" rerouteNo="0" devices="tripinfo_56" vType="DEFAULT_VEHTYPE" speedFactor="0.93" vaporized=""/>
    <tripinfo id="60" depart="132.00" departLane="E0_0" departPos="5.10" departSpeed="5.25" departDelay="54.00" arrival="243.00" arrivalLane="E3_0" arrivalPos="90.46" arrivalSpeed="27.47" duration="111.00" routeLength="1314.99" waitingTime="0.00" waitingCount="0" stopTime="0.00" timeLoss="21.46" rerouteNo="0" devices="tripinfo_60" vType="DEFAULT_VEHTYPE" speedFactor="0.92" vaporized=""/>
    <tripinfo id="62" depart="137.00" departLane="E0_0" departPos="5.10" departSpeed="5.29" departDelay="57.00" arrival="249.00" arrivalLane="E3_0" arrivalPos="90.46" arrivalSpeed="26.54" duration="112.00" routeLength="1314.99" waitingTime="0.00" waitingCount="0" stopTime="0.00" timeLoss="20.19" rerouteNo="0" devices="tripinfo_62" vType="DEFAULT_VEHTYPE" speedFactor="0.90" vaporized=""/>
    <tripinfo id="64" depart="141.00" departLane="E0_0" departPos="5.10" departSpeed="1.29" departDelay="58.00" arrival="250.00" arrivalLane="E3_0" arrivalPos="90.46" arrivalSpeed="27.94" duration="109.00" routeLength="1314.99" waitingTime="0.00" waitingCount="0" stopTime="0.00" timeLoss="33.16" rerouteNo="0" devices="tripinfo_64" vType="DEFAULT_VEHTYPE" speedFactor="1.08" vaporized=""/>
    <tripinfo id="65" depart="144.00" departLane="E0_0" departPos="5.10" departSpeed="0.17" departDelay="61.00" arrival="251.00" arrivalLane="E3_0" arrivalPos="90.46" arrivalSpeed="28.84" duration="107.00" routeLength="1314.99" waitingTime="0.00" waitingCount="0" stopTime="0.00" timeLoss="23.31" rerouteNo="0" devices="tripinfo_65" vType="DEFAULT_VEHTYPE" speedFactor="0.98" vaporized=""/>
    <tripinfo id="66" depart="148.00" departLane="E0_0" departPos="5.10" departSpeed="4.86" departDelay="62.00" arrival="253.00" arrivalLane="E3_0" arrivalPos="90.46" arrivalSpeed="28.73" duration="105.00" routeLength="1314.99" waitingTime="0.00" waitingCount="0" stopTime="0.00" timeLoss="21.06" rerouteNo="0" devices="tripinfo_66" vType="DEFAULT_VEHTYPE" speedFactor="0.98" vaporized=""/>
    <tripinfo id="68" depart="153.00" departLane="E0_0" departPos="5.10" departSpeed="5.96" departDelay="66.00" arrival="260.00" arrivalLane="E3_0" arrivalPos="90.46" arrivalSpeed="27.01" duration="107.00" routeLength="1314.99" waitingTime="0.00" waitingCount="0" stopTime="0.00" timeLoss="19.71" rerouteNo="0" devices="tripinfo_68" vType="DEFAULT_VEHTYPE" speedFactor="0.94" vaporized=""/>
    <tripinfo id="8" depart="14.00" departLane="E0_0" departPos="5.10" departSpeed="14.10" departDelay="3.00" arrival="269.00" arrivalLane="E3_0" arrivalPos="90.46" arrivalSpeed="22.79" duration="255.00" routeLength="1317.38" waitingTime="138.00" waitingCount="3" stopTime="0.00" timeLoss="170.88" rerouteNo="0" devices="tripinfo_8" vType="DEFAULT_VEHTYPE" speedFactor="1.02" vaporized=""/>
    <tripinfo id="69" depart="155.00" departLane="E0_0" departPos="5.10" departSpeed="5.29" departDelay="67.00" arrival="273.00" arrivalLane="E3_0" arrivalPos="90.46" arrivalSpeed="24.22" duration="118.00" routeLength="1314.99" waitingTime="0.00" waitingCount="0" stopTime="0.00" timeLoss="19.75" rerouteNo="0" devices="tripinfo_69" vType="DEFAULT_VEHTYPE" speedFactor="0.83" vaporized=""/>
    <tripinfo id="75" depart="168.00" departLane="E0_0" departPos="5.10" departSpeed="3.90" departDelay="77.00" arrival="275.00" arrivalLane="E3_0" arrivalPos="90.46" arrivalSpeed="28.24" duration="107.00" routeLength="1314.99" waitingTime="0.00" waitingCount="0" stopTime="0.00" timeLoss="31.80" rerouteNo="0" devices="tripinfo_75" vType="DEFAULT_VEHTYPE" speedFactor="1.10" vaporized=""/>
    <tripinfo id="76" depart="170.00" departLane="E0_0" departPos="5.10" departSpeed="1.77" departDelay="79.00" arrival="276.00" arrivalLane="E3_0" arrivalPos="90.46" arrivalSpeed="27.89" duration="106.00" routeLength="1314.99" waitingTime="0.00" waitingCount="0" stopTime="0.00" timeLoss="34.03" rerouteNo="0" devices="tripinfo_76" vType="DEFAULT_VEHTYPE" speedFactor="1.14" vaporized=""/>
    <tripinfo id="77" depart="173.00" departLane="E0_0" departPos="5.10" departSpeed="4.71" departDelay="82.00" arrival="278.00" arrivalLane="E3_0" arrivalPos="90.46" arrivalSpeed="28.65" duration="105.00" routeLength="1314.99" waitingTime="0.00" waitingCount="0" stopTime="0.00" timeLoss="19.98" rerouteNo="0" devices="tripinfo_77" vType="DEFAULT_VEHTYPE" speedFactor="0.97" vaporized=""/>
    <tripinfo id="80" depart="180.00" departLane="E0_0" departPos="5.10" departSpeed="5.62" departDelay="86.00" arrival="279.00" arrivalLane="E3_0" arrivalPos="90.46" arrivalSpeed="30.10" duration="99.00" routeLength="1314.99" waitingTime="0.00" waitingCount="0" stopTime="0.00" timeLoss="22.94" rerouteNo="0" devices="tripinfo_80" vType="DEFAULT_VEHTYPE" speedFactor="1.08" vaporized=""/>
    <tripinfo id="83" depart="187.00" departLane="E0_0" departPos="5.10" departSpeed="6.62" departDelay="88.00" arrival="282.00" arrivalLane="E3_0" arrivalPos="90.46" arrivalSpeed="30.91" duration="95.00" routeLength="1314.99" waitingTime="0.00" waitingCount="0" stopTime="0.00" timeLoss="17.26" rerouteNo="0" devices="tripinfo_83" vType="DEFAULT_VEHTYPE" speedFactor="1.06" vaporized=""/>
    <tripinfo id="11" depart="18.00" departLane="E0_0" departPos="5.10" departSpeed="7.71" departDelay="0.00" arrival="291.00" arrivalLane="E3_0" arrivalPos="90.46" arrivalSpeed="23.67" duration="273.00" routeLength="1317.38" waitingTime="152.00" waitingCount="4" stopTime="0.00" timeLoss="196.76" rerouteNo="0" devices="tripinfo_11" vType="DEFAULT_VEHTYPE" speedFactor="1.12" vaporized=""/>
    <tripinfo id="12" depart="20.00" departLane="E0_0" departPos="5.10" departSpeed="8.71" departDelay="2.00" arrival="293.00" arrivalLane="E3_0" arrivalPos="90.46" arrivalSpeed="25.39" duration="273.00" routeLength="1317.38" waitingTime="138.00" waitingCount="4" stopTime="0.00" timeLoss="177.87" rerouteNo="0" devices="tripinfo_12" vType="DEFAULT_VEHTYPE" speedFactor="0.90" vaporized=""/>
    <tripinfo id="14" depart="23.00" departLane="E0_0" departPos="5.10" departSpeed="3.78" departDelay="4.00" arrival="296.00" arrivalLane="E3_0" arrivalPos="90.46" arrivalSpeed="26.64" duration="273.00" routeLength="1317.38" waitingTime="135.00" waitingCount="4" stopTime="0.00" timeLoss="190.41" rerouteNo="0" devices="tripinfo_14" vType="DEFAULT_VEHTYPE" speedFactor="1.04" vaporized=""/>
    <tripinfo id="85" depart="191.00" departLane="E0_0" departPos="5.10" departSpeed="3.59" departDelay="87.00" arrival="303.00" arrivalLane="E3_0" arrivalPos="90.46" arrivalSpeed="25.50" duration="112.00" routeLength="1314.99" waitingTime="0.00" waitingCount="0" stopTime="0.00" timeLoss="16.79" rerouteNo="0" devices="tripinfo_85" vType="DEFAULT_VEHTYPE" speedFactor="0.87" vaporized=""/>
    <tripinfo id="86" depart="193.00" departLane="E0_0" departPos="5.10" departSpeed="2.36" departDelay="89.00" arrival="304.00" arrivalLane="E3_0" arrivalPos="90.46" arrivalSpeed="27.16" duration="111.00" routeLength="1314.99" waitingTime="0.00" waitingCount="0" stopTime="0.00" timeLoss="30.68" rerouteNo="0" devices="tripinfo_86" vType="DEFAULT_VEHTYPE" speedFactor="1.02" vaporized=""/>
    <tripinfo id="88" depart="198.00" departLane="E0_0" departPos="5.10" departSpeed="3.15" departDelay="92.00" arrival="305.00" arrivalLane="E3_0" arrivalPos="90.46" arrivalSpeed="27.27" duration="107.00" routeLength="1314.99" waitingTime="0.00" waitingCount="0" stopTime="0.00" timeLoss="23.02" rerouteNo="0" devices="tripinfo_88" vType="DEFAULT_VEHTYPE" speedFactor="0.97" vaporized=""/>
    <tripinfo id="89" depart="201.00" departLane="E0_0" departPos="5.10" departSpeed="6.13" departDelay="95.00" arrival="307.00" arrivalLane="E3_0" arrivalPos="90.46" arrivalSpeed="28.65" duration="106.00" routeLength="1314.99" waitingTime="0.00" waitingCount="0" stopTime="0.00" timeLoss="36.04" rerouteNo="0" devices="tripinfo_89" vType="DEFAULT_VEHTYPE" speedFactor="1.18" vaporized=""/>
    <tripinfo id="92" depart="207.00" departLane="E0_0" departPos="5.10" departSpeed="6.26" departDelay="99.00" arrival="310.00" arrivalLane="E3_0" arrivalPos="90.46" arrivalSpeed="28.75" duration="103.00" routeLength="1314.99" waitingTime="0.00" waitingCount="0" stopTime="0.00" timeLoss="18.92" rerouteNo="0" devices="tripinfo_92" vType="DEFAULT_VEHTYPE" speedFactor="0.98" vaporized=""/>
    <tripinfo id="93" depart="209.00" departLane="E0_0" departPos="5.10" departSpeed="6.13" departDelay="100.00" arrival="315.00" arrivalLane="E3_0" arrivalPos="90.46" arrivalSpeed="27.64" duration="106.00" routeLength="1314.99" waitingTime="0.00" waitingCount="0" stopTime="0.00" timeLoss="18.41" rerouteNo="0" devices="tripinfo_93" vType="DEFAULT_VEHTYPE" speedFactor="0.94" vaporized=""/>
    <tripinfo id="94" depart="211.00" departLane="E0_0" departPos="5.10" departSpeed="5.39" departDelay="102.00" arrival="316.00" arrivalLane="E3_0" arrivalPos="90.46" arrivalSpeed="29.24" duration="105.00" routeLength="1314.99" waitingTime="0.00" waitingCount="0" stopTime="0.00" timeLoss="25.31" rerouteNo="0" devices="tripinfo_94" vType="DEFAULT_VEHTYPE" speedFactor="1.03" vaporized=""/>
    <tripinfo id="96" depart="215.00" departLane="E0_0" departPos="5.10" departSpeed="5.18" departDelay="103.00" arrival="326.00" arrivalLane="E3_0" arrivalPos="90.46" arrivalSpeed="25.48" duration="111.00" routeLength="1314.99" waitingTime="0.00" waitingCount="0" stopTime="0.00" timeLoss="18.49" rerouteNo="0" devices="tripinfo_96" vType="DEFAULT_VEHTYPE" speedFactor="0.89" vaporized=""/>
    <tripinfo id="97" depart="217.00" departLane="E0_0" departPos="5.10" departSpeed="3.17" departDelay="105.00" arrival="328.00" arrivalLane="E3_0" arrivalPos="90.46" arrivalSpeed="28.57" duration="111.00" routeLength="1314.99" waitingTime="0.00" waitingCount="0" stopTime="0.00" timeLoss="31.05" rerouteNo="0" devices="tripinfo_97" vType="DEFAULT_VEHTYPE" speedFactor="1.03" vaporized=""/>
    <tripinfo id="100" depart="224.00" departLane="E0_0" departPos="5.10" departSpeed="5.62" departDelay="106.00" arrival="329.00" arrivalLane="E3_0" arrivalPos="90.46" arrivalSpeed="29.08" duration="105.00" routeLength="1314.99" waitingTime="0.00" waitingCount="0" stopTime="0.00" timeLoss="30.59" rerouteNo="0" devices="tripinfo_100" vType="DEFAULT_VEHTYPE" speedFactor="1.10" vaporized=""/>
    <tripinfo id="20" depart="36.00" departLane="E0_0" departPos="5.10" departSpeed="5.19" departDelay="12.00" arrival="339.00" arrivalLane="E3_0" arrivalPos="90.46" arrivalSpeed="24.16" duration="303.00" routeLength="1317.38" waitingTime="160.00" waitingCount="5" stopTime="0.00" timeLoss="217.50" rerouteNo="0" devices="tripinfo_20" vType="DEFAULT_VEHTYPE" speedFactor="1.01" vaporized=""/>
    <tripinfo id="102" depart="228.00" departLane="E0_0" departPos="5.10" departSpeed="3.41" departDelay="108.00" arrival="347.00" arrivalLane="E3_0" arrivalPos="90.46" arrivalSpeed="24.33" duration="119.00" routeLength="1314.99" waitingTime="0.00" waitingCount="0" stopTime="0.00" timeLoss="20.39" rerouteNo="0" devices="tripinfo_102" vType="DEFAULT_VEHTYPE" speedFactor="0.84" vaporized=""/>
    <tripinfo id="104" depart="233.00" departLane="E0_0" departPos="5.10" departSpeed="1.48" departDelay="112.00" arrival="348.00" arrivalLane="E3_0" arrivalPos="90.46" arrivalSpeed="25.54" duration="115.00" routeLength="1314.99" waitingTime="0.00" waitingCount="0" stopTime="0.00" timeLoss="35.45" rerouteNo="0" devices="tripinfo_104" vType="DEFAULT_VEHTYPE" speedFactor="1.04" vaporized=""/>
    <tripinfo id="106" depart="240.00" departLane="E0_0" departPos="5.10" departSpeed="4.13" departDelay="119.00" arrival="349.00" arrivalLane="E3_0" arrivalPos="90.46" arrivalSpeed="25.09" duration="109.00" routeLength="1314.99" waitingTime="0.00" waitingCount="0" stopTime="0.00" timeLoss="23.10" rerouteNo="0" devices="tripinfo_106" vType="DEFAULT_VEHTYPE" speedFactor="0.95" vaporized=""/>
    <tripinfo id="110" depart="249.00" departLane="E0_0" departPos="5.10" departSpeed="1.84" departDelay="123.00" arrival="351.00" arrivalLane="E3_0" arrivalPos="90.46" arrivalSpeed="27.19" duration="102.00" routeLength="1314.99" waitingTime="0.00" waitingCount="0" stopTime="0.00" timeLoss="21.12" rerouteNo="0" devices="tripinfo_110" vType="DEFAULT_VEHTYPE" speedFactor="1.01" vaporized=""/>
    <tripinfo id="111" depart="252.00" departLane="E0_0" departPos="5.10" departSpeed="2.91" departDelay="123.00" arrival="352.00" arrivalLane="E3_0" arrivalPos="90.46" arrivalSpeed="27.62" duration="100.00" routeLength="1314.99" waitingTime="0.00" waitingCount="0" stopTime="0.00" timeLoss="27.37" rerouteNo="0" devices="tripinfo_111" vType="DEFAULT_VEHTYPE" speedFactor="1.13" vaporized=""/>
    <tripinfo id="112" depart="255.00" departLane="E0_0" departPos="5.10" departSpeed="6.06" departDelay="125.00" arrival="354.00" arrivalLane="E3_0" arrivalPos="90.46" arrivalSpeed="29.71" duration="99.00" routeLength="1314.99" waitingTime="0.00" waitingCount="0" stopTime="0.00" timeLoss="30.77" rerouteNo="0" devices="tripinfo_112" vType="DEFAULT_VEHTYPE" speedFactor="1.21" vaporized=""/>