<?xml version="1.0" encoding="UTF-8"?>

<!-- generated on 2023-04-28 21:05:50 by Eclipse SUMO sumo Version 1.16.0
<configuration xmlns:xsi="http://www.w3.org/2001/XMLSchema-instance" xsi:noNamespaceSchemaLocation="http://sumo.dlr.de/xsd/sumoConfiguration.xsd">

    <input>
        <net-file value="C:\Users\Local_Man\Desktop\Stolen%20Music\school%20stuff%20for%20college\Semester%2015%20(UH%20Graduate%20School)\COSC%206364%20Nikolaos\SUMO_Project\COSC6364_Project\configurations\maps\Braess_Homebrew_fixed1.net.xml"/>
        <route-files value="./configurations/Rounds/Braess_Homebrew_fixed1.net.xml-test-1/Mesoscopic_DUE/001/Trips_File_001.rou.xml"/>
    </input>

    <output>
        <summary-output value="./configurations/Rounds/Braess_Homebrew_fixed1.net.xml-test-1/Mesoscopic_DUE/001/summary.xml"/>
        <tripinfo-output value="./configurations/Rounds/Braess_Homebrew_fixed1.net.xml-test-1/Mesoscopic_DUE/001/trips.trips.xml"/>
        <statistic-output value="./configurations/Rounds/Braess_Homebrew_fixed1.net.xml-test-1/Mesoscopic_DUE/001/stats_output.xml"/>
    </output>

    <time>
        <begin value="0"/>
    </time>

    <report>
        <log value="./configurations/Rounds/Braess_Homebrew_fixed1.net.xml-test-1/Mesoscopic_DUE/001/log.sumo.log"/>
        <no-step-log value="true"/>
    </report>

    <gui_only>
        <quit-on-end value="true"/>
    </gui_only>

</configuration>
-->

<tripinfos xmlns:xsi="http://www.w3.org/2001/XMLSchema-instance" xsi:noNamespaceSchemaLocation="http://sumo.dlr.de/xsd/tripinfo_file.xsd">
    <tripinfo id="2" depart="1.00" departLane="E0_0" departPos="5.10" departSpeed="0.00" departDelay="0.00" arrival="99.00" arrivalLane="E3_0" arrivalPos="90.46" arrivalSpeed="24.80" duration="98.00" routeLength="1317.38" waitingTime="0.00" waitingCount="0" stopTime="0.00" timeLoss="17.02" rerouteNo="0" devices="tripinfo_2" vType="DEFAULT_VEHTYPE" speedFactor="1.06" vaporized=""/>
    <tripinfo id="4" depart="7.00" departLane="E0_0" departPos="5.10" departSpeed="0.00" departDelay="2.00" arrival="103.00" arrivalLane="E3_0" arrivalPos="90.46" arrivalSpeed="29.04" duration="96.00" routeLength="1314.99" waitingTime="0.00" waitingCount="0" stopTime="0.00" timeLoss="15.05" rerouteNo="0" devices="tripinfo_4" vType="DEFAULT_VEHTYPE" speedFactor="1.01" vaporized=""/>
    <tripinfo id="3" depart="4.00" departLane="E0_0" departPos="5.10" departSpeed="0.00" departDelay="0.00" arrival="111.00" arrivalLane="E3_0" arrivalPos="90.46" arrivalSpeed="25.52" duration="107.00" routeLength="1317.38" waitingTime="0.00" waitingCount="0" stopTime="0.00" timeLoss="15.66" rerouteNo="0" devices="tripinfo_3" vType="DEFAULT_VEHTYPE" speedFactor="0.94" vaporized=""/>
    <tripinfo id="5" depart="10.00" departLane="E0_0" departPos="5.10" departSpeed="0.00" departDelay="4.00" arrival="113.00" arrivalLane="E3_0" arrivalPos="90.46" arrivalSpeed="26.63" duration="103.00" routeLength="1317.38" waitingTime="0.00" waitingCount="0" stopTime="0.00" timeLoss="23.75" rerouteNo="0" devices="tripinfo_5" vType="DEFAULT_VEHTYPE" speedFactor="1.08" vaporized=""/>
    <tripinfo id="6" depart="13.00" departLane="E0_0" departPos="5.10" departSpeed="0.00" departDelay="7.00" arrival="118.00" arrivalLane="E3_0" arrivalPos="90.46" arrivalSpeed="23.43" duration="105.00" routeLength="1317.38" waitingTime="0.00" waitingCount="0" stopTime="0.00" timeLoss="21.89" rerouteNo="0" devices="tripinfo_6" vType="DEFAULT_VEHTYPE" speedFactor="1.03" vaporized=""/>
    <tripinfo id="8" depart="19.00" departLane="E0_0" departPos="5.10" departSpeed="0.00" departDelay="12.00" arrival="121.00" arrivalLane="E3_0" arrivalPos="90.46" arrivalSpeed="24.31" duration="102.00" routeLength="1317.38" waitingTime="0.00" waitingCount="0" stopTime="0.00" timeLoss="19.92" rerouteNo="0" devices="tripinfo_8" vType="DEFAULT_VEHTYPE" speedFactor="1.05" vaporized=""/>
    <tripinfo id="7" depart="16.00" departLane="E0_0" departPos="5.10" departSpeed="0.00" departDelay="9.00" arrival="128.00" arrivalLane="E3_0" arrivalPos="90.46" arrivalSpeed="24.85" duration="112.00" routeLength="1314.99" waitingTime="0.00" waitingCount="0" stopTime="0.00" timeLoss="13.08" rerouteNo="0" devices="tripinfo_7" vType="DEFAULT_VEHTYPE" speedFactor="0.83" vaporized=""/>
    <tripinfo id="9" depart="22.00" departLane="E0_0" departPos="5.10" departSpeed="0.00" departDelay="14.00" arrival="130.00" arrivalLane="E3_0" arrivalPos="90.46" arrivalSpeed="25.79" duration="108.00" routeLength="1314.99" waitingTime="0.00" waitingCount="0" stopTime="0.00" timeLoss="14.63" rerouteNo="0" devices="tripinfo_9" vType="DEFAULT_VEHTYPE" speedFactor="0.89" vaporized=""/>
    <tripinfo id="12" depart="31.00" departLane="E0_0" departPos="5.10" departSpeed="0.00" departDelay="20.00" arrival="131.00" arrivalLane="E3_0" arrivalPos="90.46" arrivalSpeed="27.75" duration="100.00" routeLength="1314.99" waitingTime="0.00" waitingCount="0" stopTime="0.00" timeLoss="24.30" rerouteNo="0" devices="tripinfo_12" vType="DEFAULT_VEHTYPE" speedFactor="1.09" vaporized=""/>
    <tripinfo id="14" depart="37.00" departLane="E0_0" departPos="5.10" departSpeed="0.00" departDelay="25.00" arrival="132.00" arrivalLane="E3_0" arrivalPos="90.46" arrivalSpeed="27.39" duration="95.00" routeLength="1314.99" waitingTime="0.00" waitingCount="0" stopTime="0.00" timeLoss="16.98" rerouteNo="0" devices="tripinfo_14" vType="DEFAULT_VEHTYPE" speedFactor="1.05" vaporized=""/>
    <tripinfo id="15" depart="41.00" departLane="E0_0" departPos="5.10" departSpeed="0.00" departDelay="29.00" arrival="134.00" arrivalLane="E3_0" arrivalPos="90.46" arrivalSpeed="30.88" duration="93.00" routeLength="1314.99" waitingTime="0.00" waitingCount="0" stopTime="0.00" timeLoss="19.58" rerouteNo="0" devices="tripinfo_15" vType="DEFAULT_VEHTYPE" speedFactor="1.12" vaporized=""/>
    <tripinfo id="17" depart="47.00" departLane="E0_0" departPos="5.10" departSpeed="0.00" departDelay="32.00" arrival="149.00" arrivalLane="E3_0" arrivalPos="90.46" arrivalSpeed="27.63" duration="102.00" routeLength="1314.99" waitingTime="0.00" waitingCount="0" stopTime="0.00" timeLoss="13.11" rerouteNo="0" devices="tripinfo_17" vType="DEFAULT_VEHTYPE" speedFactor="0.93" vaporized=""/>
    <tripinfo id="18" depart="50.00" departLane="E0_0" departPos="5.10" departSpeed="0.00" departDelay="34.00" arrival="158.00" arrivalLane="E3_0" arrivalPos="90.46" arrivalSpeed="25.17" duration="108.00" routeLength="1314.99" waitingTime="0.00" waitingCount="0" stopTime="0.00" timeLoss="14.84" rerouteNo="0" devices="tripinfo_18" vType="DEFAULT_VEHTYPE" speedFactor="0.88" vaporized=""/>
    <tripinfo id="20" depart="56.00" departLane="E0_0" departPos="5.10" departSpeed="0.00" departDelay="39.00" arrival="160.00" arrivalLane="E3_0" arrivalPos="90.46" arrivalSpeed="26.86" duration="104.00" routeLength="1314.99" waitingTime="0.00" waitingCount="0" stopTime="0.00" timeLoss="16.03" rerouteNo="0" devices="tripinfo_20" vType="DEFAULT_VEHTYPE" speedFactor="0.94" vaporized=""/>
    <tripinfo id="22" depart="62.00" departLane="E0_0" departPos="5.10" departSpeed="0.00" departDelay="45.00" arrival="161.00" arrivalLane="E3_0" arrivalPos="90.46" arrivalSpeed="30.18" duration="99.00" routeLength="1314.99" waitingTime="0.00" waitingCount="0" stopTime="0.00" timeLoss="18.23" rerouteNo="0" devices="tripinfo_22" vType="DEFAULT_VEHTYPE" speedFactor="1.02" vaporized=""/>
    <tripinfo id="24" depart="68.00" departLane="E0_0" departPos="5.10" departSpeed="0.00" departDelay="50.00" arrival="166.00" arrivalLane="E3_0" arrivalPos="90.46" arrivalSpeed="27.97" duration="98.00" routeLength="1314.99" waitingTime="0.00" waitingCount="0" stopTime="0.00" timeLoss="13.88" rerouteNo="0" devices="tripinfo_24" vType="DEFAULT_VEHTYPE" speedFactor="0.97" vaporized=""/>
    <tripinfo id="10" depart="25.00" departLane="E0_0" departPos="5.10" departSpeed="0.00" departDelay="17.00" arrival="176.00" arrivalLane="E3_0" arrivalPos="90.46" arrivalSpeed="24.39" duration="151.00" routeLength="1317.38" waitingTime="38.00" waitingCount="1" stopTime="0.00" timeLoss="59.39" rerouteNo="0" devices="tripinfo_10" vType="DEFAULT_VEHTYPE" speedFactor="0.94" vaporized=""/>
    <tripinfo id="11" depart="28.00" departLane="E0_0" departPos="5.10" departSpeed="0.00" departDelay="19.00" arrival="177.00" arrivalLane="E3_0" arrivalPos="90.46" arrivalSpeed="24.22" duration="149.00" routeLength="1317.38" waitingTime="29.00" waitingCount="1" stopTime="0.00" timeLoss="49.38" rerouteNo="0" devices="tripinfo_11" vType="DEFAULT_VEHTYPE" speedFactor="0.86" vaporized=""/>
    <tripinfo id="13" depart="34.00" departLane="E0_0" departPos="5.10" departSpeed="0.00" departDelay="23.00" arrival="179.00" arrivalLane="E3_0" arrivalPos="90.46" arrivalSpeed="25.97" duration="145.00" routeLength="1317.38" waitingTime="29.00" waitingCount="1" stopTime="0.00" timeLoss="61.48" rerouteNo="0" devices="tripinfo_13" vType="DEFAULT_VEHTYPE" speedFactor="1.03" vaporized=""/>
    <tripinfo id="29" depart="83.00" departLane="E0_0" departPos="5.10" departSpeed="0.00" departDelay="59.00" arrival="185.00" arrivalLane="E3_0" arrivalPos="90.46" arrivalSpeed="27.90" duration="102.00" routeLength="1314.99" waitingTime="0.00" waitingCount="0" stopTime="0.00" timeLoss="15.16" rerouteNo="0" devices="tripinfo_29" vType="DEFAULT_VEHTYPE" speedFactor="0.95" vaporized=""/>
    <tripinfo id="31" depart="89.00" departLane="E0_0" departPos="5.10" departSpeed="0.00" departDelay="63.00" arrival="192.00" arrivalLane="E3_0" arrivalPos="90.46" arrivalSpeed="27.42" duration="103.00" routeLength="1314.99" waitingTime="0.00" waitingCount="0" stopTime="0.00" timeLoss="14.83" rerouteNo="0" devices="tripinfo_31" vType="DEFAULT_VEHTYPE" speedFactor="0.93" vaporized=""/>
    <tripinfo id="32" depart="92.00" departLane="E0_0" departPos="5.10" departSpeed="0.00" departDelay="66.00" arrival="194.00" arrivalLane="E3_0" arrivalPos="90.46" arrivalSpeed="31.74" duration="102.00" routeLength="1314.99" waitingTime="0.00" waitingCount="0" stopTime="0.00" timeLoss="31.60" rerouteNo="0" devices="tripinfo_32" vType="DEFAULT_VEHTYPE" speedFactor="1.18" vaporized=""/>
    <tripinfo id="33" depart="95.00" departLane="E0_0" departPos="5.10" departSpeed="0.00" departDelay="65.00" arrival="195.00" arrivalLane="E3_0" arrivalPos="90.46" arrivalSpeed="30.71" duration="100.00" routeLength="1314.99" waitingTime="0.00" waitingCount="0" stopTime="0.00" timeLoss="28.39" rerouteNo="0" devices="tripinfo_33" vType="DEFAULT_VEHTYPE" speedFactor="1.15" vaporized=""/>
    <tripinfo id="35" depart="101.00" departLane="E0_0" departPos="5.10" departSpeed="0.00" departDelay="64.00" arrival="196.00" arrivalLane="E3_0" arrivalPos="90.46" arrivalSpeed="29.68" duration="95.00" routeLength="1314.99" waitingTime="0.00" waitingCount="0" stopTime="0.00" timeLoss="24.92" rerouteNo="0" devices="tripinfo_35" vType="DEFAULT_VEHTYPE" speedFactor="1.17" vaporized=""/>
    <tripinfo id="37" depart="107.00" departLane="E0_0" departPos="5.10" departSpeed="0.00" departDelay="69.00" arrival="203.00" arrivalLane="E3_0" arrivalPos="90.46" arrivalSpeed="30.02" duration="96.00" routeLength="1314.99" waitingTime="0.00" waitingCount="0" stopTime="0.00" timeLoss="14.75" rerouteNo="0" devices="tripinfo_37" vType="DEFAULT_VEHTYPE" speedFactor="1.02" vaporized=""/>
    <tripinfo id="39" depart="113.00" departLane="E0_0" departPos="5.10" departSpeed="0.00" departDelay="74.00" arrival="204.00" arrivalLane="E3_0" arrivalPos="90.46" arrivalSpeed="31.48" duration="91.00" routeLength="1314.99" waitingTime="0.00" waitingCount="0" stopTime="0.00" timeLoss="21.04" rerouteNo="0" devices="tripinfo_39" vType="DEFAULT_VEHTYPE" speedFactor="1.18" vaporized=""/>
    <tripinfo id="40" depart="116.00" departLane="E0_0" departPos="5.10" departSpeed="0.00" departDelay="76.00" arrival="206.00" arrivalLane="E3_0" arrivalPos="90.46" arrivalSpeed="31.95" duration="90.00" routeLength="1314.99" waitingTime="0.00" waitingCount="0" stopTime="0.00" timeLoss="15.56" rerouteNo="0" devices="tripinfo_40" vType="DEFAULT_VEHTYPE" speedFactor="1.10" vaporized=""/>
    <tripinfo id="16" depart="44.00" departLane="E0_0" departPos="5.10" departSpeed="0.00" departDelay="30.00" arrival="216.00" arrivalLane="E3_0" arrivalPos="90.46" arrivalSpeed="25.08" duration="172.00" routeLength="1317.38" waitingTime="56.00" waitingCount="2" stopTime="0.00" timeLoss="85.45" rerouteNo="0" devices="tripinfo_16" vType="DEFAULT_VEHTYPE" speedFactor="0.99" vaporized=""/>
    <tripinfo id="19" depart="53.00" departLane="E0_0" departPos="5.10" departSpeed="0.00" departDelay="36.00" arrival="220.00" arrivalLane="E3_0" arrivalPos="90.46" arrivalSpeed="24.99" duration="167.00" routeLength="1317.38" waitingTime="47.00" waitingCount="2" stopTime="0.00" timeLoss="75.77" rerouteNo="0" devices="tripinfo_19" vType="DEFAULT_VEHTYPE" speedFactor="0.94" vaporized=""/>
    <tripinfo id="41" depart="119.00" departLane="E0_0" departPos="5.10" departSpeed="0.00" departDelay="78.00" arrival="225.00" arrivalLane="E3_0" arrivalPos="90.46" arrivalSpeed="26.79" duration="106.00" routeLength="1314.99" waitingTime="0.00" waitingCount="0" stopTime="0.00" timeLoss="14.84" rerouteNo="0" devices="tripinfo_41" vType="DEFAULT_VEHTYPE" speedFactor="0.90" vaporized=""/>
    <tripinfo id="42" depart="122.00" departLane="E0_0" departPos="5.10" departSpeed="0.00" departDelay="81.00" arrival="227.00" arrivalLane="E3_0" arrivalPos="90.46" arrivalSpeed="29.71" duration="105.00" routeLength="1314.99" waitingTime="0.00" waitingCount="0" stopTime="0.00" timeLoss="24.73" rerouteNo="0" devices="tripinfo_42" vType="DEFAULT_VEHTYPE" speedFactor="1.03" vaporized=""/>
    <tripinfo id="44" depart="128.00" departLane="E0_0" departPos="5.10" departSpeed="0.00" departDelay="84.00" arrival="228.00" arrivalLane="E3_0" arrivalPos="90.46" arrivalSpeed="31.01" duration="100.00" routeLength="1314.99" waitingTime="0.00" waitingCount="0" stopTime="0.00" timeLoss="24.40" rerouteNo="0" devices="tripinfo_44" vType="DEFAULT_VEHTYPE" speedFactor="1.09" vaporized=""/>
    <tripinfo id="45" depart="131.00" departLane="E0_0" departPos="5.10" departSpeed="0.00" departDelay="87.00" arrival="229.00" arrivalLane="E3_0" arrivalPos="90.46" arrivalSpeed="30.46" duration="98.00" routeLength="1314.99" waitingTime="0.00" waitingCount="0" stopTime="0.00" timeLoss="19.02" rerouteNo="0" devices="tripinfo_45" vType="DEFAULT_VEHTYPE" speedFactor="1.04" vaporized=""/>
    <tripinfo id="46" depart="134.00" departLane="E0_0" departPos="5.10" departSpeed="0.00" departDelay="89.00" arrival="231.00" arrivalLane="E3_0" arrivalPos="90.46" arrivalSpeed="30.32" duration="97.00" routeLength="1314.99" waitingTime="0.00" waitingCount="0" stopTime="0.00" timeLoss="17.85" rerouteNo="0" devices="tripinfo_46" vType="DEFAULT_VEHTYPE" speedFactor="1.04" vaporized=""/>
    <tripinfo id="48" depart="140.00" departLane="E0_0" departPos="5.10" departSpeed="0.00" departDelay="91.00" arrival="235.00" arrivalLane="E3_0" arrivalPos="90.46" arrivalSpeed="29.11" duration="95.00" routeLength="1314.99" waitingTime="0.00" waitingCount="0" stopTime="0.00" timeLoss="13.27" rerouteNo="0" devices="tripinfo_48" vType="DEFAULT_VEHTYPE" speedFactor="1.00" vaporized=""/>
    <tripinfo id="21" depart="59.00" departLane="E0_0" departPos="5.10" departSpeed="0.00" departDelay="42.00" arrival="244.00" arrivalLane="E3_0" arrivalPos="90.46" arrivalSpeed="25.92" duration="185.00" routeLength="1317.38" waitingTime="65.00" waitingCount="3" stopTime="0.00" timeLoss="110.65" rerouteNo="0" devices="tripinfo_21" vType="DEFAULT_VEHTYPE" speedFactor="1.16" vaporized=""/>
    <tripinfo id="23" depart="65.00" departLane="E0_0" departPos="5.10" departSpeed="0.00" departDelay="47.00" arrival="246.00" arrivalLane="E3_0" arrivalPos="90.46" arrivalSpeed="25.25" duration="181.00" routeLength="1317.38" waitingTime="60.00" waitingCount="3" stopTime="0.00" timeLoss="95.96" rerouteNo="0" devices="tripinfo_23" vType="DEFAULT_VEHTYPE" speedFactor="1.01" vaporized=""/>
    <tripinfo id="25" depart="71.00" departLane="E0_0" departPos="5.10" departSpeed="0.00" departDelay="51.00" arrival="248.00" arrivalLane="E3_0" arrivalPos="90.46" arrivalSpeed="26.17" duration="177.00" routeLength="1317.38" waitingTime="47.00" waitingCount="3" stopTime="0.00" timeLoss="80.39" rerouteNo="0" devices="tripinfo_25" vType="DEFAULT_VEHTYPE" speedFactor="0.89" vaporized=""/>
    <tripinfo id="50" depart="146.00" departLane="E0_0" departPos="5.10" departSpeed="0.00" departDelay="93.00" arrival="253.00" arrivalLane="E3_0" arrivalPos="90.46" arrivalSpeed="26.17" duration="107.00" routeLength="1314.99" waitingTime="0.00" waitingCount="0" stopTime="0.00" timeLoss="13.71" rerouteNo="0" devices="tripinfo_50" vType="DEFAULT_VEHTYPE" speedFactor="0.88" vaporized=""/>
    <tripinfo id="57" depart="168.00" departLane="E0_0" departPos="5.10" departSpeed="0.00" departDelay="110.00" arrival="266.00" arrivalLane="E3_0" arrivalPos="90.46" arrivalSpeed="29.11" duration="98.00" routeLength="1314.99" waitingTime="0.00" waitingCount="0" stopTime="0.00" timeLoss="14.89" rerouteNo="0" devices="tripinfo_57" vType="DEFAULT_VEHTYPE" speedFactor="1.00" vaporized=""/>
    <tripinfo id="60" depart="177.00" departLane="E0_0" departPos="5.10" departSpeed="0.00" departDelay="117.00" arrival="271.00" arrivalLane="E3_0" arrivalPos="90.46" arrivalSpeed="30.42" duration="94.00" routeLength="1314.99" waitingTime="0.00" waitingCount="0" stopTime="0.00" timeLoss="13.80" rerouteNo="0" devices="tripinfo_60" vType="DEFAULT_VEHTYPE" speedFactor="1.02" vaporized=""/>
    <tripinfo id="62" depart="183.00" departLane="E0_0" departPos="5.10" departSpeed="0.00" departDelay="121.00" arrival="273.00" arrivalLane="E3_0" arrivalPos="90.46" arrivalSpeed="31.42" duration="90.00" routeLength="1314.99" waitingTime="0.00" waitingCount="0" stopTime="0.00" timeLoss="13.53" rerouteNo="0" devices="tripinfo_62" vType="DEFAULT_VEHTYPE" speedFactor="1.08" vaporized=""/>
    <tripinfo id="64" depart="189.00" departLane="E0_0" departPos="5.10" departSpeed="0.00" departDelay="125.00" arrival="285.00" arrivalLane="E3_0" arrivalPos="90.46" arrivalSpeed="30.19" duration="96.00" routeLength="1314.99" waitingTime="0.00" waitingCount="0" stopTime="0.00" timeLoss="15.36" rerouteNo="0" devices="tripinfo_64" vType="DEFAULT_VEHTYPE" speedFactor="1.02" vaporized=""/>
    <tripinfo id="65" depart="192.00" departLane="E0_0" departPos="5.10" departSpeed="0.00" departDelay="128.00" arrival="290.00" arrivalLane="E3_0" arrivalPos="90.46" arrivalSpeed="28.38" duration="98.00" routeLength="1314.99" waitingTime="0.00" waitingCount="0" stopTime="0.00" timeLoss="14.76" rerouteNo="0" devices="tripinfo_65" vType="DEFAULT_VEHTYPE" speedFactor="0.99" vaporized=""/>
    <tripinfo id="66" depart="195.00" departLane="E0_0" departPos="5.10" departSpeed="0.00" departDelay="131.00" arrival="297.00" arrivalLane="E3_0" arrivalPos="90.46" arrivalSpeed="27.73" duration="102.00" routeLength="1314.99" waitingTime="0.00" waitingCount="0" stopTime="0.00" timeLoss="14.64" rerouteNo="0" devices="tripinfo_66" vType="DEFAULT_VEHTYPE" speedFactor="0.94" vaporized=""/>
    <tripinfo id="26" depart="74.00" departLane="E0_0" departPos="5.10" departSpeed="0.00" departDelay="53.00" arrival="306.00" arrivalLane="E3_0" arrivalPos="90.46" arrivalSpeed="23.89" duration="232.00" routeLength="1317.38" waitingTime="95.00" waitingCount="3" stopTime="0.00" timeLoss="128.03" rerouteNo="0" devices="tripinfo_26" vType="DEFAULT_VEHTYPE" speedFactor="0.83" vaporized=""/>
    <tripinfo id="69" depart="204.00" departLane="E0_0" departPos="5.10" departSpeed="0.00" departDelay="134.00" arrival="308.00" arrivalLane="E3_0" arrivalPos="90.46" arrivalSpeed="26.30" duration="104.00" routeLength="1314.99" waitingTime="0.00" waitingCount="0" stopTime="0.00" timeLoss="14.31" rerouteNo="0" devices="tripinfo_69" vType="DEFAULT_VEHTYPE" speedFactor="0.91" vaporized=""/>
    <tripinfo id="70" depart="207.00" departLane="E0_0" departPos="5.10" departSpeed="0.00" departDelay="132.00" arrival="310.00" arrivalLane="E3_0" arrivalPos="90.46" arrivalSpeed="30.74" duration="103.00" routeLength="1314.99" waitingTime="0.00" waitingCount="0" stopTime="0.00" timeLoss="23.53" rerouteNo="0" devices="tripinfo_70" vType="DEFAULT_VEHTYPE" speedFactor="1.04" vaporized=""/>
    <tripinfo id="72" depart="213.00" departLane="E0_0" departPos="5.10" departSpeed="0.00" departDelay="138.00" arrival="311.00" arrivalLane="E3_0" arrivalPos="90.46" arrivalSpeed="30.30" duration="98.00" routeLength="1314.99" waitingTime="0.00" waitingCount="0" stopTime="0.00" timeLoss="17.89" rerouteNo="0" devices="tripinfo_72" vType="DEFAULT_VEHTYPE" speedFactor="1.02" vaporized=""/>
    <tripinfo id="73" depart="216.00" departLane="E0_0" departPos="5.10" departSpeed="0.00" departDelay="140.00" arrival="316.00" arrivalLane="E3_0" arrivalPos="90.46" arrivalSpeed="28.69" duration="100.00" routeLength="1314.99" waitingTime="0.00" waitingCount="0" stopTime="0.00" timeLoss="15.35" rerouteNo="0" devices="tripinfo_73" vType="DEFAULT_VEHTYPE" speedFactor="0.97" vaporized=""/>
    <tripinfo id="74" depart="219.00" departLane="E0_0" departPos="5.10" departSpeed="0.00" departDelay="143.00" arrival="323.00" arrivalLane="E3_0" arrivalPos="90.46" arrivalSpeed="28.01" duration="104.00" routeLength="1314.99" waitingTime="0.00" waitingCount="0" stopTime="0.00" timeLoss="16.51" rerouteNo="0" devices="tripinfo_74" vType="DEFAULT_VEHTYPE" speedFactor="0.94" vaporized=""/>
    <tripinfo id="76" depart="225.00" departLane="E0_0" departPos="5.10" departSpeed="0.00" departDelay="147.00" arrival="327.00" arrivalLane="E3_0" arrivalPos="90.46" arrivalSpeed="28.36" duration="102.00" routeLength="1314.99" waitingTime="0.00" waitingCount="0" stopTime="0.00" timeLoss="15.56" rerouteNo="0" devices="tripinfo_76" vType="DEFAULT_VEHTYPE" speedFactor="0.96" vaporized=""/>
    <tripinfo id="77" depart="229.00" departLane="E0_0" departPos="5.10" departSpeed="0.00" departDelay="149.00" arrival="328.00" arrivalLane="E3_0" arrivalPos="90.46" arrivalSpeed="28.79" duration="99.00" routeLength="1314.99" waitingTime="0.00" waitingCount="0" stopTime="0.00" timeLoss="15.92" rerouteNo="0" devices="tripinfo_77" vType="DEFAULT_VEHTYPE" speedFactor="0.98" vaporized=""/>
    <tripinfo id="78" depart="232.00" departLane="E0_0" departPos="5.10" departSpeed="0.00" departDelay="150.00" arrival="330.00" arrivalLane="E3_0" arrivalPos="90.46" arrivalSpeed="30.97" duration="98.00" routeLength="1314.99" waitingTime="0.00" waitingCount="0" stopTime="0.00" timeLoss="17.91" rerouteNo="0" devices="tripinfo_78" vType="DEFAULT_VEHTYPE" speedFactor="1.03" vaporized=""/>
    <tripinfo id="79" depart="235.00" departLane="E0_0" departPos="5.10" departSpeed="0.00" departDelay="149.00" arrival="334.00" arrivalLane="E3_0" arrivalPos="90.46" arrivalSpeed="28.47" duration="99.00" routeLength="1314.99" waitingTime="0.00" waitingCount="0" stopTime="0.00" timeLoss="14.82" rerouteNo="0" devices="tripinfo_79" vType="DEFAULT_VEHTYPE" speedFactor="0.98" vaporized=""/>
    <tripinfo id="81" depart="241.00" departLane="E0_0" departPos="5.10" departSpeed="0.00" departDelay="155.00" arrival="335.00" arrivalLane="E3_0" arrivalPos="90.46" arrivalSpeed="30.87" duration="94.00" routeLength="1314.99" waitingTime="0.00" waitingCount="0" stopTime="0.00" timeLoss="18.34" rerouteNo="0" devices="tripinfo_81" vType="DEFAULT_VEHTYPE" speedFactor="1.09" vaporized=""/>
    <tripinfo id="82" depart="244.00" departLane="E0_0" departPos="5.10" departSpeed="0.00" departDelay="156.00" arrival="340.00" arrivalLane="E3_0" arrivalPos="90.46" arrivalSpeed="30.67" duration="96.00" routeLength="1314.99" waitingTime="0.00" waitingCount="0" stopTime="0.00" timeLoss="16.81" rerouteNo="0" devices="tripinfo_82" vType="DEFAULT_VEHTYPE" speedFactor="1.03" vaporized=""/>
    <tripinfo id="83" depart="248.00" departLane="E0_0" departPos="5.10" departSpeed="0.00" departDelay="157.00" arrival="347.00" arrivalLane="E3_0" arrivalPos="90.46" arrivalSpeed="28.90" duration="99.00" routeLength="1314.99" waitingTime="0.00" waitingCount="0" stopTime="0.00" timeLoss="15.80" rerouteNo="0" devices="tripinfo_83" vType="DEFAULT_VEHTYPE" speedFactor="1.00" vaporized=""/>
    <tripinfo id="85" depart="254.00" departLane="E0_0" departPos="5.10" departSpeed="0.00" departDelay="162.00" arrival="354.00" arrivalLane="E3_0" arrivalPos="90.46" arrivalSpeed="28.60" duration="100.00" routeLength="1314.99" waitingTime="0.00" waitingCount="0" stopTime="0.00" timeLoss="15.43" rerouteNo="0" devices="tripinfo_85" vType="DEFAULT_VEHTYPE" speedFactor="0.97" vaporized=""/>
    <tripinfo id="87" depart="260.00" departLane="E0_0" departPos="5.10" departSpeed="0.00" departDelay="164.00" arrival="360.00" arrivalLane="E3_0" arrivalPos="90.46" arrivalSpeed="29.11" duration="100.00" routeLength="1314.99" waitingTime="0.00" waitingCount="0" stopTime="0.00" timeLoss="15.71" rerouteNo="0" devices="tripinfo_87" vType="DEFAULT_VEHTYPE" speedFactor="0.98" vaporized=""/>
    <tripinfo id="91" depart="272.00" departLane="E0_0" departPos="5.10" departSpeed="0.00" departDelay="175.00" arrival="366.00" arrivalLane="E3_0" arrivalPos="90.46" arrivalSpeed="30.05" duration="94.00" routeLength="1314.99" waitingTime="0.00" waitingCount="0" stopTime="0.00" timeLoss="13.72" rerouteNo="0" devices="tripinfo_91" vType="DEFAULT_VEHTYPE" speedFactor="1.02" vaporized=""/>
    <tripinfo id="92" depart="275.00" departLane="E0_0" departPos="5.10" departSpeed="0.00" departDelay="177.00" arrival="370.00" arrivalLane="E3_0" arrivalPos="90.46" arrivalSpeed="29.35" duration="95.00" routeLength="1314.99" waitingTime="0.00" waitingCount="0" stopTime="0.00" timeLoss="13.92" rerouteNo="0" devices="tripinfo_92" vType="DEFAULT_VEHTYPE" speedFactor="1.02" vaporized=""/>
    <tripinfo id="27" depart="77.00" departLane="E0_0" departPos="5.10" departSpeed="0.00" departDelay="55.00" arrival="378.00" arrivalLane="E3_0" arrivalPos="90.46" arrivalSpeed="24.27" duration="301.00" routeLength="1317.38" waitingTime="158.00" waitingCount="4" stopTime="0.00" timeLoss="202.29" rerouteNo="0" devices="tripinfo_27" vType="DEFAULT_VEHTYPE" speedFactor="0.87" vaporized=""/>
    <tripinfo id="28" depart="80.00" departLane="E0_0" departPos="5.10" departSpeed="0.00" departDelay="58.00" arrival="380.00" arrivalLane="E3_0" arrivalPos="90.46" arrivalSpeed="25.02" duration="300.00" routeLength="1317.38" waitingTime="156.00" waitingCount="4" stopTime="0.00" timeLoss="206.44" rerouteNo="0" devices="tripinfo_28" vType="DEFAULT_VEHTYPE" speedFactor="0.92" vaporized=""/>
    <tripinfo id="30" depart="86.00" departLane="E0_0" departPos="5.10" departSpeed="0.00" departDelay="61.00" arrival="381.00" arrivalLane="E3_0" arrivalPos="90.46" arrivalSpeed="24.12" duration="295.00" routeLength="1317.38" waitingTime="154.00" waitingCount="4" stopTime="0.00" timeLoss="219.74" rerouteNo="0" devices="tripinfo_30" vType="DEFAULT_VEHTYPE" speedFactor="1.13" vaporized=""/>
    <tripinfo id="34" depart="98.00" departLane="E0_0" departPos="5.10" departSpeed="0.00" departDelay="67.00" arrival="384.00" arrivalLane="E3_0" arrivalPos="90.46" arrivalSpeed="24.11" duration="286.00" routeLength="1317.38" waitingTime="153.00" waitingCount="4" stopTime="0.00" timeLoss="200.95" rerouteNo="0" devices="tripinfo_34" vType="DEFAULT_VEHTYPE" speedFactor="1.01" vaporized=""/>
    <tripinfo id="36" depart="104.00" departLane="E0_0" departPos="5.10" departSpeed="0.00" departDelay="66.00" arrival="386.00" arrivalLane="E3_0" arrivalPos="90.46" arrivalSpeed="25.88" duration="282.00" routeLength="1317.38" waitingTime="149.00" waitingCount="4" stopTime="0.00" timeLoss="195.73" rerouteNo="0" devices="tripinfo_36" vType="DEFAULT_VEHTYPE" speedFactor="0.99" vaporized=""/>
    <tripinfo id="38" depart="110.00" departLane="E0_0" departPos="5.10" departSpeed="0.00" departDelay="72.00" arrival="390.00" arrivalLane="E3_0" arrivalPos="90.46" arrivalSpeed="24.09" duration="280.00" routeLength="1317.38" waitingTime="138.00" waitingCount="4" stopTime="0.00" timeLoss="191.93" rerouteNo="0" devices="tripinfo_38" vType="DEFAULT_VEHTYPE" speedFactor="0.97" vaporized=""/>
    <tripinfo id="94" depart="281.00" departLane="E0_0" departPos="5.10" departSpeed="0.00" departDelay="182.00" arrival="394.00" arrivalLane="E3_0" arrivalPos="90.46" arrivalSpeed="23.91" duration="113.00" routeLength="1314.99" waitingTime="0.00" waitingCount="0" stopTime="0.00" timeLoss="14.54" rerouteNo="0" devices="tripinfo_94" vType="DEFAULT_VEHTYPE" speedFactor="0.83" vaporized=""/>
    <tripinfo id="95" depart="284.00" departLane="E0_0" departPos="5.10" departSpeed="0.00" departDelay="185.00" arrival="395.00" arrivalLane="E3_0" arrivalPos="90.46" arrivalSpeed="26.56" duration="111.00" routeLength="1314.99" waitingTime="0.00" waitingCount="0" stopTime="0.00" timeLoss="21.98" rerouteNo="0" devices="tripinfo_95" vType="DEFAULT_VEHTYPE" speedFactor="0.92" vaporized=""/>
    <tripinfo id="96" depart="287.00" departLane="E0_0" departPos="5.10" departSpeed="0.00" departDelay="187.00" arrival="397.00" arrivalLane="E3_0" arrivalPos="90.46" arrivalSpeed="27.29" duration="110.00" routeLength="1314.99" waitingTime="0.00" waitingCount="0" stopTime="0.00" timeLoss="34.47" rerouteNo="0" devices="tripinfo_96" vType="DEFAULT_VEHTYPE" speedFactor="1.09" vaporized=""/>
    <tripinfo id="101" depart="302.00" departLane="E0_0" departPos="5.10" departSpeed="0.00" departDelay="198.00" arrival="398.00" arrivalLane="E3_0" arrivalPos="90.46" arrivalSpeed="28.11" duration="96.00" routeLength="1314.99" waitingTime="0.00" waitingCount="0" stopTime="0.00" timeLoss="21.07" rerouteNo="0" devices="tripinfo_101" vType="DEFAULT_VEHTYPE" speedFactor="1.10" vaporized=""/>