<?xml version="1.0" encoding="UTF-8"?>

<!-- generated on 2023-04-29 21:19:14 by Eclipse SUMO sumo Version 1.16.0
<configuration xmlns:xsi="http://www.w3.org/2001/XMLSchema-instance" xsi:noNamespaceSchemaLocation="http://sumo.dlr.de/xsd/sumoConfiguration.xsd">

    <input>
        <net-file value="C:\Users\Local_Man\Desktop\Stolen%20Music\school%20stuff%20for%20college\Semester%2015%20(UH%20Graduate%20School)\COSC%206364%20Nikolaos\SUMO_Project\COSC6364_Project\configurations\maps\4corners_neighborhoods.net.xml"/>
        <route-files value="./configurations/Rounds/4corners_neighborhoods.net.xml-test-3/Macroscopic_DUE/005/Trips_File_005.rou.xml"/>
    </input>

    <output>
        <summary-output value="./configurations/Rounds/4corners_neighborhoods.net.xml-test-3/Macroscopic_DUE/005/summary.xml"/>
        <tripinfo-output value="./configurations/Rounds/4corners_neighborhoods.net.xml-test-3/Macroscopic_DUE/005/trips.trips.xml"/>
        <statistic-output value="./configurations/Rounds/4corners_neighborhoods.net.xml-test-3/Macroscopic_DUE/005/stats_output.xml"/>
    </output>

    <time>
        <begin value="0"/>
    </time>

    <report>
        <log value="./configurations/Rounds/4corners_neighborhoods.net.xml-test-3/Macroscopic_DUE/005/log.sumo.log"/>
        <no-step-log value="true"/>
    </report>

    <gui_only>
        <quit-on-end value="true"/>
    </gui_only>

</configuration>
-->

<tripinfos xmlns:xsi="http://www.w3.org/2001/XMLSchema-instance" xsi:noNamespaceSchemaLocation="http://sumo.dlr.de/xsd/tripinfo_file.xsd">
    <tripinfo id="5" depart="5.00" departLane="-260998164#3_0" departPos="5.10" departSpeed="33.35" departDelay="0.00" arrival="40.00" arrivalLane="-318908683#1_0" arrivalPos="71.22" arrivalSpeed="15.52" duration="35.00" routeLength="955.07" waitingTime="0.00" waitingCount="0" stopTime="0.00" timeLoss="2.21" rerouteNo="0" devices="tripinfo_5" vType="DEFAULT_VEHTYPE" speedFactor="1.20" vaporized=""/>
    <tripinfo id="19" depart="17.00" departLane="422685671#2_1" departPos="5.10" departSpeed="24.71" departDelay="0.00" arrival="80.00" arrivalLane="918280984_0" arrivalPos="38.78" arrivalSpeed="11.68" duration="63.00" routeLength="1069.78" waitingTime="3.00" waitingCount="1" stopTime="0.00" timeLoss="14.41" rerouteNo="0" devices="tripinfo_19" vType="DEFAULT_VEHTYPE" speedFactor="0.89" vaporized=""/>
    <tripinfo id="10" depart="8.00" departLane="105681660#12_0" departPos="5.10" departSpeed="20.28" departDelay="0.00" arrival="85.00" arrivalLane="-597602753#1_0" arrivalPos="143.59" arrivalSpeed="19.72" duration="77.00" routeLength="1380.56" waitingTime="0.00" waitingCount="0" stopTime="0.00" timeLoss="8.00" rerouteNo="0" devices="tripinfo_10" vType="DEFAULT_VEHTYPE" speedFactor="0.92" vaporized=""/>
    <tripinfo id="29" depart="33.00" departLane="318908683#0_0" departPos="5.10" departSpeed="13.06" departDelay="0.00" arrival="86.00" arrivalLane="260998164#0_0" arrivalPos="257.55" arrivalSpeed="26.04" duration="53.00" routeLength="939.98" waitingTime="4.00" waitingCount="1" stopTime="0.00" timeLoss="13.01" rerouteNo="0" devices="tripinfo_29" vType="DEFAULT_VEHTYPE" speedFactor="0.94" vaporized=""/>
    <tripinfo id="9" depart="7.00" departLane="-260998164#3_0" departPos="5.10" departSpeed="26.05" departDelay="0.00" arrival="95.00" arrivalLane="-597602756#0_0" arrivalPos="325.99" arrivalSpeed="19.74" duration="88.00" routeLength="1231.40" waitingTime="0.00" waitingCount="0" stopTime="0.00" timeLoss="10.07" rerouteNo="0" devices="tripinfo_9" vType="DEFAULT_VEHTYPE" speedFactor="0.94" vaporized=""/>
    <tripinfo id="4" depart="5.00" departLane="105681660#12_0" departPos="5.10" departSpeed="23.24" departDelay="0.00" arrival="100.00" arrivalLane="918280984_0" arrivalPos="38.78" arrivalSpeed="14.01" duration="95.00" routeLength="1405.13" waitingTime="0.00" waitingCount="0" stopTime="0.00" timeLoss="17.06" rerouteNo="0" devices="tripinfo_4" vType="DEFAULT_VEHTYPE" speedFactor="1.05" vaporized=""/>
    <tripinfo id="3" depart="2.00" departLane="422685671#2_0" departPos="5.10" departSpeed="30.08" departDelay="0.00" arrival="101.00" arrivalLane="-105681660#20_0" arrivalPos="806.12" arrivalSpeed="23.54" duration="99.00" routeLength="1813.05" waitingTime="5.00" waitingCount="1" stopTime="0.00" timeLoss="24.99" rerouteNo="0" devices="tripinfo_3" vType="DEFAULT_VEHTYPE" speedFactor="1.08" vaporized=""/>
    <tripinfo id="18" depart="16.00" departLane="422685671#2_1" departPos="5.10" departSpeed="28.59" departDelay="0.00" arrival="109.00" arrivalLane="-105681660#20_0" arrivalPos="806.12" arrivalSpeed="22.26" duration="93.00" routeLength="1813.05" waitingTime="0.00" waitingCount="0" stopTime="0.00" timeLoss="15.12" rerouteNo="0" devices="tripinfo_18" vType="DEFAULT_VEHTYPE" speedFactor="1.03" vaporized=""/>
    <tripinfo id="28" depart="31.00" departLane="918280985_0" departPos="5.10" departSpeed="10.50" departDelay="0.00" arrival="111.00" arrivalLane="260998164#0_0" arrivalPos="257.55" arrivalSpeed="26.18" duration="80.00" routeLength="1460.33" waitingTime="4.00" waitingCount="1" stopTime="0.00" timeLoss="21.12" rerouteNo="0" devices="tripinfo_28" vType="DEFAULT_VEHTYPE" speedFactor="0.97" vaporized=""/>
    <tripinfo id="16" depart="14.00" departLane="597602753#0_0" departPos="5.10" departSpeed="24.06" departDelay="0.00" arrival="117.00" arrivalLane="260998164#0_0" arrivalPos="257.55" arrivalSpeed="29.93" duration="103.00" routeLength="1937.50" waitingTime="0.00" waitingCount="0" stopTime="0.00" timeLoss="16.21" rerouteNo="0" devices="tripinfo_16" vType="DEFAULT_VEHTYPE" speedFactor="1.08" vaporized=""/>
    <tripinfo id="21" depart="19.00" departLane="422688973_0" departPos="5.10" departSpeed="0.00" departDelay="0.00" arrival="117.00" arrivalLane="-597602753#1_0" arrivalPos="143.59" arrivalSpeed="18.68" duration="98.00" routeLength="1114.81" waitingTime="4.00" waitingCount="2" stopTime="0.00" timeLoss="22.28" rerouteNo="0" devices="tripinfo_21" vType="DEFAULT_VEHTYPE" speedFactor="0.87" vaporized=""/>
    <tripinfo id="25" depart="29.00" departLane="597602753#0_0" departPos="5.10" departSpeed="25.65" departDelay="0.00" arrival="117.00" arrivalLane="-597602756#0_0" arrivalPos="325.99" arrivalSpeed="25.04" duration="88.00" routeLength="1646.04" waitingTime="6.00" waitingCount="1" stopTime="0.00" timeLoss="23.00" rerouteNo="0" devices="tripinfo_25" vType="DEFAULT_VEHTYPE" speedFactor="1.15" vaporized=""/>
    <tripinfo id="15" depart="13.00" departLane="422685671#2_0" departPos="5.10" departSpeed="28.95" departDelay="0.00" arrival="122.00" arrivalLane="260998164#0_0" arrivalPos="257.55" arrivalSpeed="28.41" duration="109.00" routeLength="1329.43" waitingTime="50.00" waitingCount="1" stopTime="0.00" timeLoss="62.62" rerouteNo="0" devices="tripinfo_15" vType="DEFAULT_VEHTYPE" speedFactor="1.04" vaporized=""/>
    <tripinfo id="17" depart="15.00" departLane="918280985_0" departPos="5.10" departSpeed="13.00" departDelay="0.00" arrival="123.00" arrivalLane="-597602753#1_0" arrivalPos="143.59" arrivalSpeed="22.12" duration="108.00" routeLength="1072.66" waitingTime="19.00" waitingCount="1" stopTime="0.00" timeLoss="35.71" rerouteNo="0" devices="tripinfo_17" vType="DEFAULT_VEHTYPE" speedFactor="1.01" vaporized=""/>
    <tripinfo id="7" depart="7.00" departLane="918280985_0" departPos="5.10" departSpeed="14.88" departDelay="0.00" arrival="124.00" arrivalLane="-105681660#20_0" arrivalPos="806.12" arrivalSpeed="23.72" duration="117.00" routeLength="1360.98" waitingTime="27.00" waitingCount="2" stopTime="0.00" timeLoss="46.35" rerouteNo="0" devices="tripinfo_7" vType="DEFAULT_VEHTYPE" speedFactor="1.09" vaporized=""/>
    <tripinfo id="38" depart="49.00" departLane="422685671#2_0" departPos="5.10" departSpeed="28.36" departDelay="0.00" arrival="124.00" arrivalLane="260998164#0_0" arrivalPos="257.55" arrivalSpeed="27.70" duration="75.00" routeLength="1329.43" waitingTime="15.00" waitingCount="1" stopTime="0.00" timeLoss="27.94" rerouteNo="0" devices="tripinfo_38" vType="DEFAULT_VEHTYPE" speedFactor="1.02" vaporized=""/>
    <tripinfo id="12" depart="12.00" departLane="597602756#0_0" departPos="5.10" departSpeed="20.59" departDelay="0.00" arrival="126.00" arrivalLane="-597602753#1_0" arrivalPos="143.59" arrivalSpeed="20.10" duration="114.00" routeLength="1638.96" waitingTime="14.00" waitingCount="2" stopTime="0.00" timeLoss="32.84" rerouteNo="0" devices="tripinfo_12" vType="DEFAULT_VEHTYPE" speedFactor="0.93" vaporized=""/>
    <tripinfo id="40" depart="49.00" departLane="597602756#0_0" departPos="5.10" departSpeed="23.64" departDelay="0.00" arrival="131.00" arrivalLane="260998164#0_0" arrivalPos="257.55" arrivalSpeed="29.36" duration="82.00" routeLength="1239.91" waitingTime="0.00" waitingCount="0" stopTime="0.00" timeLoss="13.49" rerouteNo="0" devices="tripinfo_40" vType="DEFAULT_VEHTYPE" speedFactor="1.06" vaporized=""/>
    <tripinfo id="42" depart="51.00" departLane="422688973_0" departPos="5.10" departSpeed="15.75" departDelay="0.00" arrival="132.00" arrivalLane="-318908683#1_0" arrivalPos="71.22" arrivalSpeed="13.48" duration="81.00" routeLength="684.23" waitingTime="44.00" waitingCount="1" stopTime="0.00" timeLoss="54.27" rerouteNo="0" devices="tripinfo_42" vType="DEFAULT_VEHTYPE" speedFactor="1.05" vaporized=""/>
    <tripinfo id="6" depart="5.00" departLane="918280985_0" departPos="5.10" departSpeed="14.97" departDelay="0.00" arrival="138.00" arrivalLane="-597602756#0_0" arrivalPos="325.99" arrivalSpeed="23.72" duration="133.00" routeLength="1890.39" waitingTime="28.00" waitingCount="1" stopTime="0.00" timeLoss="54.61" rerouteNo="0" devices="tripinfo_6" vType="DEFAULT_VEHTYPE" speedFactor="1.08" vaporized=""/>
    <tripinfo id="23" depart="22.00" departLane="422685671#2_1" departPos="5.10" departSpeed="31.44" departDelay="0.00" arrival="138.00" arrivalLane="422688976#1_0" arrivalPos="294.40" arrivalSpeed="30.42" duration="116.00" routeLength="1317.05" waitingTime="52.00" waitingCount="1" stopTime="0.00" timeLoss="72.36" rerouteNo="0" devices="tripinfo_23" vType="DEFAULT_VEHTYPE" speedFactor="1.13" vaporized=""/>
    <tripinfo id="20" depart="18.00" departLane="597602753#0_0" departPos="5.10" departSpeed="22.41" departDelay="0.00" arrival="141.00" arrivalLane="15374898#0-AddedOffRampEdge_0" arrivalPos="100.00" arrivalSpeed="26.82" duration="123.00" routeLength="1964.42" waitingTime="0.00" waitingCount="0" stopTime="0.00" timeLoss="19.61" rerouteNo="0" devices="tripinfo_20" vType="DEFAULT_VEHTYPE" speedFactor="1.01" vaporized=""/>
    <tripinfo id="36" depart="44.00" departLane="318908683#0_0" departPos="5.10" departSpeed="10.70" departDelay="0.00" arrival="142.00" arrivalLane="422688976#1_0" arrivalPos="294.40" arrivalSpeed="20.83" duration="98.00" routeLength="940.85" waitingTime="39.00" waitingCount="1" stopTime="0.00" timeLoss="49.87" rerouteNo="0" devices="tripinfo_36" vType="DEFAULT_VEHTYPE" speedFactor="0.77" vaporized=""/>
    <tripinfo id="69" depart="82.00" departLane="918280985_0" departPos="5.10" departSpeed="2.19" departDelay="0.00" arrival="142.00" arrivalLane="-318908683#1_0" arrivalPos="71.22" arrivalSpeed="10.88" duration="60.00" routeLength="674.50" waitingTime="10.00" waitingCount="1" stopTime="0.00" timeLoss="23.83" rerouteNo="0" devices="tripinfo_69" vType="DEFAULT_VEHTYPE" speedFactor="0.83" vaporized=""/>
    <tripinfo id="22" depart="21.00" departLane="597602753#0_0" departPos="5.10" departSpeed="22.93" departDelay="0.00" arrival="144.00" arrivalLane="422688976#1_1" arrivalPos="294.40" arrivalSpeed="28.12" duration="123.00" routeLength="1788.22" waitingTime="20.00" waitingCount="2" stopTime="0.00" timeLoss="50.46" rerouteNo="0" devices="tripinfo_22" vType="DEFAULT_VEHTYPE" speedFactor="1.03" vaporized=""/>
    <tripinfo id="66" depart="80.00" departLane="918280985_0" departPos="5.10" departSpeed="7.50" departDelay="0.00" arrival="148.00" arrivalLane="15374898#0-AddedOffRampEdge_0" arrivalPos="100.00" arrivalSpeed="25.98" duration="68.00" routeLength="996.81" waitingTime="10.00" waitingCount="1" stopTime="0.00" timeLoss="28.12" rerouteNo="0" devices="tripinfo_66" vType="DEFAULT_VEHTYPE" speedFactor="0.98" vaporized=""/>
    <tripinfo id="8" depart="7.00" departLane="105681660#12_0" departPos="5.10" departSpeed="22.60" departDelay="0.00" arrival="149.00" arrivalLane="15374898#0-AddedOffRampEdge_0" arrivalPos="100.00" arrivalSpeed="27.14" duration="142.00" routeLength="2308.55" waitingTime="0.00" waitingCount="0" stopTime="0.00" timeLoss="31.61" rerouteNo="0" devices="tripinfo_8" vType="DEFAULT_VEHTYPE" speedFactor="1.02" vaporized=""/>
    <tripinfo id="14" depart="13.00" departLane="597602756#0_0" departPos="5.10" departSpeed="18.24" departDelay="0.00" arrival="149.00" arrivalLane="918280984_0" arrivalPos="38.78" arrivalSpeed="11.74" duration="136.00" routeLength="1737.87" waitingTime="29.00" waitingCount="1" stopTime="0.00" timeLoss="51.63" rerouteNo="0" devices="tripinfo_14" vType="DEFAULT_VEHTYPE" speedFactor="0.94" vaporized=""/>
    <tripinfo id="61" depart="72.00" departLane="-260998164#3_0" departPos="5.10" departSpeed="30.19" departDelay="0.00" arrival="149.00" arrivalLane="-597602756#0_0" arrivalPos="325.99" arrivalSpeed="23.67" duration="77.00" routeLength="1231.40" waitingTime="0.00" waitingCount="0" stopTime="0.00" timeLoss="10.05" rerouteNo="0" devices="tripinfo_61" vType="DEFAULT_VEHTYPE" speedFactor="1.09" vaporized=""/>
    <tripinfo id="85" depart="104.00" departLane="918280985_0" departPos="5.10" departSpeed="6.81" departDelay="3.00" arrival="149.00" arrivalLane="-318908683#1_0" arrivalPos="71.22" arrivalSpeed="11.94" duration="45.00" routeLength="674.50" waitingTime="0.00" waitingCount="0" stopTime="0.00" timeLoss="10.23" rerouteNo="0" devices="tripinfo_85" vType="DEFAULT_VEHTYPE" speedFactor="0.87" vaporized=""/>
    <tripinfo id="44" depart="54.00" departLane="-260998164#3_0" departPos="5.10" departSpeed="27.87" departDelay="0.00" arrival="151.00" arrivalLane="918280984_0" arrivalPos="38.78" arrivalSpeed="13.50" duration="97.00" routeLength="1465.15" waitingTime="21.00" waitingCount="2" stopTime="0.00" timeLoss="40.44" rerouteNo="0" devices="tripinfo_44" vType="DEFAULT_VEHTYPE" speedFactor="1.00" vaporized=""/>
    <tripinfo id="2" depart="1.00" departLane="422688973_0" departPos="5.10" departSpeed="27.09" departDelay="0.00" arrival="152.00" arrivalLane="-597602756#0_0" arrivalPos="325.99" arrivalSpeed="21.30" duration="151.00" routeLength="1901.28" waitingTime="37.00" waitingCount="1" stopTime="0.00" timeLoss="56.61" rerouteNo="0" devices="tripinfo_2" vType="DEFAULT_VEHTYPE" speedFactor="0.98" vaporized=""/>
    <tripinfo id="11" depart="10.00" departLane="105681660#12_0" departPos="5.10" departSpeed="22.24" departDelay="0.00" arrival="153.00" arrivalLane="15374898#0-AddedOffRampEdge_0" arrivalPos="100.00" arrivalSpeed="30.51" duration="143.00" routeLength="2308.55" waitingTime="0.00" waitingCount="0" stopTime="0.00" timeLoss="42.29" rerouteNo="0" devices="tripinfo_11" vType="DEFAULT_VEHTYPE" speedFactor="1.12" vaporized=""/>
    <tripinfo id="26" depart="30.00" departLane="422685671#2_0" departPos="5.10" departSpeed="31.16" departDelay="0.00" arrival="153.00" arrivalLane="918280984_0" arrivalPos="38.78" arrivalSpeed="14.89" duration="123.00" routeLength="1069.78" waitingTime="63.00" waitingCount="2" stopTime="0.00" timeLoss="84.26" rerouteNo="0" devices="tripinfo_26" vType="DEFAULT_VEHTYPE" speedFactor="1.12" vaporized=""/>
    <tripinfo id="31" depart="35.00" departLane="422688973_0" departPos="5.10" departSpeed="0.00" departDelay="0.00" arrival="154.00" arrivalLane="-597602753#1_0" arrivalPos="143.59" arrivalSpeed="23.26" duration="119.00" routeLength="1114.81" waitingTime="33.00" waitingCount="2" stopTime="0.00" timeLoss="58.87" rerouteNo="0" devices="tripinfo_31" vType="DEFAULT_VEHTYPE" speedFactor="1.10" vaporized=""/>
    <tripinfo id="49" depart="62.00" departLane="597602753#0_0" departPos="5.10" departSpeed="23.52" departDelay="0.00" arrival="154.00" arrivalLane="-597602756#0_0" arrivalPos="325.99" arrivalSpeed="23.58" duration="92.00" routeLength="1646.04" waitingTime="0.00" waitingCount="0" stopTime="0.00" timeLoss="23.80" rerouteNo="0" devices="tripinfo_49" vType="DEFAULT_VEHTYPE" speedFactor="1.12" vaporized=""/>
    <tripinfo id="13" depart="12.00" departLane="105681660#12_0" departPos="5.10" departSpeed="20.01" departDelay="0.00" arrival="155.00" arrivalLane="918280984_0" arrivalPos="38.78" arrivalSpeed="12.11" duration="143.00" routeLength="1772.86" waitingTime="25.00" waitingCount="3" stopTime="0.00" timeLoss="53.90" rerouteNo="0" devices="tripinfo_13" vType="DEFAULT_VEHTYPE" speedFactor="0.90" vaporized=""/>
    <tripinfo id="48" depart="60.00" departLane="597602753#0_0" departPos="5.10" departSpeed="22.15" departDelay="0.00" arrival="157.00" arrivalLane="918280984_0" arrivalPos="38.78" arrivalSpeed="13.29" duration="97.00" routeLength="1540.95" waitingTime="2.00" waitingCount="1" stopTime="0.00" timeLoss="27.95" rerouteNo="0" devices="tripinfo_48" vType="DEFAULT_VEHTYPE" speedFactor="1.00" vaporized=""/>
    <tripinfo id="47" depart="57.00" departLane="318908683#0_0" departPos="5.10" departSpeed="14.22" departDelay="0.00" arrival="160.00" arrivalLane="260998164#0_0" arrivalPos="257.55" arrivalSpeed="27.82" duration="103.00" routeLength="939.98" waitingTime="57.00" waitingCount="1" stopTime="0.00" timeLoss="65.99" rerouteNo="0" devices="tripinfo_47" vType="DEFAULT_VEHTYPE" speedFactor="1.02" vaporized=""/>
    <tripinfo id="24" depart="26.00" departLane="422688973_0" departPos="5.10" departSpeed="0.00" departDelay="0.00" arrival="161.00" arrivalLane="-105681660#20_0" arrivalPos="806.12" arrivalSpeed="18.73" duration="135.00" routeLength="1352.23" waitingTime="37.00" waitingCount="1" stopTime="0.00" timeLoss="51.14" rerouteNo="0" devices="tripinfo_24" vType="DEFAULT_VEHTYPE" speedFactor="0.89" vaporized=""/>
    <tripinfo id="104" depart="120.00" departLane="422688973_2" departPos="5.10" departSpeed="2.37" departDelay="0.00" arrival="162.00" arrivalLane="-318908683#1_0" arrivalPos="71.22" arrivalSpeed="12.88" duration="42.00" routeLength="684.23" waitingTime="0.00" waitingCount="0" stopTime="0.00" timeLoss="14.01" rerouteNo="0" devices="tripinfo_104" vType="DEFAULT_VEHTYPE" speedFactor="1.01" vaporized=""/>
    <tripinfo id="32" depart="37.00" departLane="-260998164#3_0" departPos="5.10" departSpeed="23.20" departDelay="0.00" arrival="164.00" arrivalLane="-597602753#1_0" arrivalPos="143.59" arrivalSpeed="17.43" duration="127.00" routeLength="1979.71" waitingTime="4.00" waitingCount="2" stopTime="0.00" timeLoss="28.80" rerouteNo="0" devices="tripinfo_32" vType="DEFAULT_VEHTYPE" speedFactor="0.83" vaporized=""/>
    <tripinfo id="108" depart="123.00" departLane="422688973_0" departPos="5.10" departSpeed="14.81" departDelay="0.00" arrival="164.00" arrivalLane="-318908683#1_0" arrivalPos="71.22" arrivalSpeed="13.47" duration="41.00" routeLength="684.23" waitingTime="0.00" waitingCount="0" stopTime="0.00" timeLoss="13.73" rerouteNo="0" devices="tripinfo_108" vType="DEFAULT_VEHTYPE" speedFactor="1.06" vaporized=""/>
    <tripinfo id="106" depart="121.00" departLane="422688973_2" departPos="5.10" departSpeed="2.37" departDelay="0.00" arrival="166.00" arrivalLane="-318908683#1_0" arrivalPos="71.22" arrivalSpeed="12.02" duration="45.00" routeLength="684.23" waitingTime="0.00" waitingCount="0" stopTime="0.00" timeLoss="15.27" rerouteNo="0" devices="tripinfo_106" vType="DEFAULT_VEHTYPE" speedFactor="0.95" vaporized=""/>
    <tripinfo id="34" depart="40.00" departLane="105681660#12_0" departPos="5.10" departSpeed="23.68" departDelay="0.00" arrival="170.00" arrivalLane="918280984_0" arrivalPos="38.78" arrivalSpeed="14.14" duration="130.00" routeLength="1405.13" waitingTime="24.00" waitingCount="3" stopTime="0.00" timeLoss="53.94" rerouteNo="0" devices="tripinfo_34" vType="DEFAULT_VEHTYPE" speedFactor="1.07" vaporized=""/>
    <tripinfo id="77" depart="92.00" departLane="318908683#0_0" departPos="5.10" departSpeed="13.45" departDelay="0.00" arrival="170.00" arrivalLane="260998164#0_0" arrivalPos="257.55" arrivalSpeed="26.76" duration="78.00" routeLength="939.98" waitingTime="28.00" waitingCount="1" stopTime="0.00" timeLoss="39.08" rerouteNo="0" devices="tripinfo_77" vType="DEFAULT_VEHTYPE" speedFactor="0.97" vaporized=""/>
    <tripinfo id="99" depart="114.00" departLane="422688973_1" departPos="5.10" departSpeed="15.75" departDelay="0.00" arrival="170.00" arrivalLane="15374898#0-AddedOffRampEdge_0" arrivalPos="100.00" arrivalSpeed="29.76" duration="56.00" routeLength="1006.54" waitingTime="2.00" waitingCount="1" stopTime="0.00" timeLoss="21.88" rerouteNo="0" devices="tripinfo_99" vType="DEFAULT_VEHTYPE" speedFactor="1.10" vaporized=""/>
    <tripinfo id="33" depart="38.00" departLane="597602756#0_0" departPos="5.10" departSpeed="22.90" departDelay="0.00" arrival="172.00" arrivalLane="-105681660#20_0" arrivalPos="806.12" arrivalSpeed="22.56" duration="134.00" routeLength="1867.67" waitingTime="35.00" waitingCount="1" stopTime="0.00" timeLoss="50.56" rerouteNo="0" devices="tripinfo_33" vType="DEFAULT_VEHTYPE" speedFactor="1.03" vaporized=""/>
    <tripinfo id="81" depart="96.00" departLane="318908683#0_0" departPos="5.10" departSpeed="13.47" departDelay="0.00" arrival="172.00" arrivalLane="260998164#0_0" arrivalPos="257.55" arrivalSpeed="28.60" duration="76.00" routeLength="939.98" waitingTime="26.00" waitingCount="1" stopTime="0.00" timeLoss="40.47" rerouteNo="0" devices="tripinfo_81" vType="DEFAULT_VEHTYPE" speedFactor="1.08" vaporized=""/>
    <tripinfo id="55" depart="66.00" departLane="422688973_0" departPos="5.10" departSpeed="0.00" departDelay="0.00" arrival="175.00" arrivalLane="-597602753#1_0" arrivalPos="143.59" arrivalSpeed="21.80" duration="109.00" routeLength="1114.81" waitingTime="21.00" waitingCount="3" stopTime="0.00" timeLoss="44.97" rerouteNo="0" devices="tripinfo_55" vType="DEFAULT_VEHTYPE" speedFactor="1.02" vaporized=""/>
    <tripinfo id="68" depart="81.00" departLane="105681660#12_0" departPos="5.10" departSpeed="20.94" departDelay="0.00" arrival="175.00" arrivalLane="918280984_0" arrivalPos="38.78" arrivalSpeed="11.99" duration="94.00" routeLength="1405.13" waitingTime="0.00" waitingCount="0" stopTime="0.00" timeLoss="7.69" rerouteNo="0" devices="tripinfo_68" vType="DEFAULT_VEHTYPE" speedFactor="0.94" vaporized=""/>
    <tripinfo id="73" depart="86.00" departLane="597602756#0_0" departPos="5.10" departSpeed="25.38" departDelay="0.00" arrival="175.00" arrivalLane="-105681660#20_0" arrivalPos="806.12" arrivalSpeed="25.14" duration="89.00" routeLength="1867.67" waitingTime="0.00" waitingCount="0" stopTime="0.00" timeLoss="12.89" rerouteNo="0" devices="tripinfo_73" vType="DEFAULT_VEHTYPE" speedFactor="1.14" vaporized=""/>
    <tripinfo id="30" depart="33.00" departLane="105681660#12_0" departPos="5.10" departSpeed="22.66" departDelay="0.00" arrival="177.00" arrivalLane="422688976#1_0" arrivalPos="294.40" arrivalSpeed="27.79" duration="144.00" routeLength="1630.66" waitingTime="33.00" waitingCount="3" stopTime="0.00" timeLoss="58.77" rerouteNo="0" devices="tripinfo_30" vType="DEFAULT_VEHTYPE" speedFactor="1.02" vaporized=""/>
    <tripinfo id="80" depart="96.00" departLane="597602756#0_0" departPos="5.10" departSpeed="22.99" departDelay="0.00" arrival="177.00" arrivalLane="260998164#0_0" arrivalPos="257.55" arrivalSpeed="28.65" duration="81.00" routeLength="1239.91" waitingTime="0.00" waitingCount="0" stopTime="0.00" timeLoss="9.59" rerouteNo="0" devices="tripinfo_80" vType="DEFAULT_VEHTYPE" speedFactor="1.03" vaporized=""/>
    <tripinfo id="90" depart="109.00" departLane="318908683#0_0" departPos="5.10" departSpeed="8.48" departDelay="0.00" arrival="178.00" arrivalLane="260998164#0_0" arrivalPos="257.55" arrivalSpeed="27.20" duration="69.00" routeLength="939.98" waitingTime="17.00" waitingCount="1" stopTime="0.00" timeLoss="31.19" rerouteNo="0" devices="tripinfo_90" vType="DEFAULT_VEHTYPE" speedFactor="0.99" vaporized=""/>
    <tripinfo id="43" depart="54.00" departLane="422688973_0" departPos="5.10" departSpeed="0.00" departDelay="0.00" arrival="181.00" arrivalLane="-597602753#1_0" arrivalPos="143.59" arrivalSpeed="24.43" duration="127.00" routeLength="1063.91" waitingTime="30.00" waitingCount="3" stopTime="0.00" timeLoss="61.24" rerouteNo="0" devices="tripinfo_43" vType="DEFAULT_VEHTYPE" speedFactor="1.10" vaporized=""/>
    <tripinfo id="59" depart="69.00" departLane="105681660#12_0" departPos="5.10" departSpeed="22.94" departDelay="0.00" arrival="181.00" arrivalLane="422688976#1_0" arrivalPos="294.40" arrivalSpeed="27.49" duration="112.00" routeLength="1630.66" waitingTime="4.00" waitingCount="1" stopTime="0.00" timeLoss="28.02" rerouteNo="0" devices="tripinfo_59" vType="DEFAULT_VEHTYPE" speedFactor="1.03" vaporized=""/>
    <tripinfo id="39" depart="49.00" departLane="422688973_0" departPos="5.10" departSpeed="0.00" departDelay="0.00" arrival="193.00" arrivalLane="-105681660#20_0" arrivalPos="806.12" arrivalSpeed="18.68" duration="144.00" routeLength="1352.23" waitingTime="32.00" waitingCount="2" stopTime="0.00" timeLoss="58.08" rerouteNo="0" devices="tripinfo_39" vType="DEFAULT_VEHTYPE" speedFactor="0.88" vaporized=""/>
    <tripinfo id="58" depart="68.00" departLane="918280985_0" departPos="5.10" departSpeed="8.51" departDelay="0.00" arrival="194.00" arrivalLane="-105681660#20_0" arrivalPos="806.12" arrivalSpeed="20.56" duration="126.00" routeLength="1360.98" waitingTime="26.00" waitingCount="2" stopTime="0.00" timeLoss="57.82" rerouteNo="0" devices="tripinfo_58" vType="DEFAULT_VEHTYPE" speedFactor="1.12" vaporized=""/>
    <tripinfo id="75" depart="87.00" departLane="422685671#2_0" departPos="5.10" departSpeed="30.48" departDelay="0.00" arrival="199.00" arrivalLane="422688976#1_0" arrivalPos="294.40" arrivalSpeed="29.41" duration="112.00" routeLength="1317.05" waitingTime="38.00" waitingCount="1" stopTime="0.00" timeLoss="66.26" rerouteNo="0" devices="tripinfo_75" vType="DEFAULT_VEHTYPE" speedFactor="1.10" vaporized=""/>
    <tripinfo id="37" depart="44.00" departLane="597602753#0_0" departPos="5.10" departSpeed="20.01" departDelay="0.00" arrival="201.00" arrivalLane="422688976#1_1" arrivalPos="294.40" arrivalSpeed="24.60" duration="157.00" routeLength="1788.22" waitingTime="41.00" waitingCount="3" stopTime="0.00" timeLoss="73.31" rerouteNo="0" devices="tripinfo_37" vType="DEFAULT_VEHTYPE" speedFactor="0.90" vaporized=""/>
    <tripinfo id="63" depart="77.00" departLane="422685671#2_0" departPos="5.10" departSpeed="30.06" departDelay="0.00" arrival="201.00" arrivalLane="422688976#1_0" arrivalPos="294.40" arrivalSpeed="24.68" duration="124.00" routeLength="1317.05" waitingTime="50.00" waitingCount="2" stopTime="0.00" timeLoss="78.41" rerouteNo="0" devices="tripinfo_63" vType="DEFAULT_VEHTYPE" speedFactor="1.08" vaporized=""/>
    <tripinfo id="84" depart="100.00" departLane="-260998164#3_0" departPos="5.10" departSpeed="34.67" departDelay="0.00" arrival="202.00" arrivalLane="422688976#1_1" arrivalPos="294.40" arrivalSpeed="28.74" duration="102.00" routeLength="1702.46" waitingTime="18.00" waitingCount="2" stopTime="0.00" timeLoss="52.18" rerouteNo="0" devices="tripinfo_84" vType="DEFAULT_VEHTYPE" speedFactor="1.25" vaporized=""/>
    <tripinfo id="45" depart="56.00" departLane="105681660#12_0" departPos="5.10" departSpeed="19.97" departDelay="0.00" arrival="205.00" arrivalLane="260998164#0_0" arrivalPos="257.55" arrivalSpeed="23.75" duration="149.00" routeLength="2169.41" waitingTime="6.00" waitingCount="1" stopTime="0.00" timeLoss="31.43" rerouteNo="0" devices="tripinfo_45" vType="DEFAULT_VEHTYPE" speedFactor="0.90" vaporized=""/>
    <tripinfo id="52" depart="64.00" departLane="422685671#2_0" departPos="5.10" departSpeed="26.66" departDelay="0.00" arrival="206.00" arrivalLane="-105681660#20_0" arrivalPos="806.12" arrivalSpeed="20.51" duration="142.00" routeLength="1813.05" waitingTime="36.00" waitingCount="2" stopTime="0.00" timeLoss="58.55" rerouteNo="0" devices="tripinfo_52" vType="DEFAULT_VEHTYPE" speedFactor="0.96" vaporized=""/>
    <tripinfo id="65" depart="80.00" departLane="318908683#0_0" departPos="5.10" departSpeed="13.56" departDelay="0.00" arrival="207.00" arrivalLane="-597602753#1_0" arrivalPos="143.59" arrivalSpeed="20.82" duration="127.00" routeLength="1208.14" waitingTime="38.00" waitingCount="1" stopTime="0.00" timeLoss="69.27" rerouteNo="0" devices="tripinfo_65" vType="DEFAULT_VEHTYPE" speedFactor="0.98" vaporized=""/>
    <tripinfo id="67" depart="81.00" departLane="-260998164#3_0" departPos="5.10" departSpeed="27.98" departDelay="0.00" arrival="207.00" arrivalLane="15374898#0-AddedOffRampEdge_0" arrivalPos="100.00" arrivalSpeed="27.35" duration="126.00" routeLength="1332.80" waitingTime="67.00" waitingCount="1" stopTime="0.00" timeLoss="78.34" rerouteNo="0" devices="tripinfo_67" vType="DEFAULT_VEHTYPE" speedFactor="1.01" vaporized=""/>
    <tripinfo id="95" depart="111.00" departLane="-260998164#3_0" departPos="5.10" departSpeed="28.43" departDelay="0.00" arrival="207.00" arrivalLane="15374898#0-AddedOffRampEdge_1" arrivalPos="100.00" arrivalSpeed="28.22" duration="96.00" routeLength="1332.80" waitingTime="36.00" waitingCount="1" stopTime="0.00" timeLoss="48.43" rerouteNo="0" devices="tripinfo_95" vType="DEFAULT_VEHTYPE" speedFactor="1.02" vaporized=""/>
    <tripinfo id="82" depart="97.00" departLane="422685671#2_0" departPos="5.10" departSpeed="27.15" departDelay="0.00" arrival="208.00" arrivalLane="-105681660#20_0" arrivalPos="806.12" arrivalSpeed="20.80" duration="111.00" routeLength="1813.05" waitingTime="9.00" waitingCount="1" stopTime="0.00" timeLoss="28.84" rerouteNo="0" devices="tripinfo_82" vType="DEFAULT_VEHTYPE" speedFactor="0.98" vaporized=""/>