<?xml version="1.0" encoding="UTF-8"?>

<!-- generated on 2023-04-04 16:36:04 by Eclipse SUMO sumo Version 1.16.0
<configuration xmlns:xsi="http://www.w3.org/2001/XMLSchema-instance" xsi:noNamespaceSchemaLocation="http://sumo.dlr.de/xsd/sumoConfiguration.xsd">

    <input>
        <net-file value="020/../configurations/maps/4corners_neighborhoods.net.xml"/>
        <route-files value="020/Trips_File_020.rou.xml"/>
        <additional-files value="020/../edgedata.add.xml"/>
    </input>

    <output>
        <output-prefix value="020/"/>
        <summary-output value="020/../summary_020.xml"/>
        <tripinfo-output value="020/../tripinfo_020.xml"/>
    </output>

    <time>
        <begin value="0"/>
    </time>

    <processing>
        <route-steps value="200"/>
        <no-internal-links value="False"/>
        <time-to-teleport value="300"/>
        <time-to-teleport.highways value="0"/>
        <eager-insert value="False"/>
    </processing>

    <report>
        <verbose value="true"/>
        <no-warnings value="False"/>
        <log value="020/../iteration_020.sumo.log"/>
        <no-step-log value="true"/>
    </report>

    <random_number>
        <random value="False"/>
    </random_number>

</configuration>
-->

<tripinfos xmlns:xsi="http://www.w3.org/2001/XMLSchema-instance" xsi:noNamespaceSchemaLocation="http://sumo.dlr.de/xsd/tripinfo_file.xsd">
    <tripinfo id="6" depart="9.00" departLane="318908683#0_0" departPos="5.10" departSpeed="0.00" departDelay="0.00" arrival="76.00" arrivalLane="918280984_0" arrivalPos="38.78" arrivalSpeed="13.64" duration="67.00" routeLength="693.58" waitingTime="18.00" waitingCount="1" stopTime="0.00" timeLoss="37.06" rerouteNo="0" devices="tripinfo_6" vType="DEFAULT_VEHTYPE" speedFactor="1.03" vaporized=""/>
    <tripinfo id="27" depart="25.00" departLane="422688973_0" departPos="5.10" departSpeed="0.00" departDelay="0.00" arrival="99.00" arrivalLane="15374898#0-AddedOffRampEdge_0" arrivalPos="100.00" arrivalSpeed="23.28" duration="74.00" routeLength="1006.54" waitingTime="16.00" waitingCount="1" stopTime="0.00" timeLoss="31.37" rerouteNo="0" devices="tripinfo_27" vType="DEFAULT_VEHTYPE" speedFactor="0.87" vaporized=""/>
    <tripinfo id="50" depart="49.00" departLane="318908683#0_0" departPos="5.10" departSpeed="0.00" departDelay="3.00" arrival="99.00" arrivalLane="260998164#0_0" arrivalPos="257.55" arrivalSpeed="23.50" duration="50.00" routeLength="939.98" waitingTime="0.00" waitingCount="0" stopTime="0.00" timeLoss="7.23" rerouteNo="0" devices="tripinfo_50" vType="DEFAULT_VEHTYPE" speedFactor="0.88" vaporized=""/>
    <tripinfo id="14" depart="15.00" departLane="597602753#0_0" departPos="5.10" departSpeed="0.00" departDelay="0.00" arrival="102.00" arrivalLane="918280984_0" arrivalPos="38.78" arrivalSpeed="13.61" duration="87.00" routeLength="1061.00" waitingTime="0.00" waitingCount="0" stopTime="0.00" timeLoss="17.84" rerouteNo="0" devices="tripinfo_14" vType="DEFAULT_VEHTYPE" speedFactor="1.05" vaporized=""/>
    <tripinfo id="34" depart="31.00" departLane="422688973_0" departPos="5.10" departSpeed="0.00" departDelay="0.00" arrival="102.00" arrivalLane="15374898#0-AddedOffRampEdge_0" arrivalPos="100.00" arrivalSpeed="27.34" duration="71.00" routeLength="1006.54" waitingTime="11.00" waitingCount="1" stopTime="0.00" timeLoss="34.18" rerouteNo="0" devices="tripinfo_34" vType="DEFAULT_VEHTYPE" speedFactor="1.01" vaporized=""/>
    <tripinfo id="54" depart="48.00" departLane="422688973_0" departPos="5.10" departSpeed="0.00" departDelay="0.00" arrival="104.00" arrivalLane="15374898#0-AddedOffRampEdge_0" arrivalPos="100.00" arrivalSpeed="27.80" duration="56.00" routeLength="1006.54" waitingTime="0.00" waitingCount="0" stopTime="0.00" timeLoss="19.65" rerouteNo="0" devices="tripinfo_54" vType="DEFAULT_VEHTYPE" speedFactor="1.02" vaporized=""/>
    <tripinfo id="24" depart="22.00" departLane="105681660#12_0" departPos="5.10" departSpeed="0.00" departDelay="0.00" arrival="108.00" arrivalLane="-597602753#1_0" arrivalPos="143.59" arrivalSpeed="20.56" duration="86.00" routeLength="1380.56" waitingTime="6.00" waitingCount="1" stopTime="0.00" timeLoss="21.17" rerouteNo="0" devices="tripinfo_24" vType="DEFAULT_VEHTYPE" speedFactor="0.97" vaporized=""/>
    <tripinfo id="17" depart="18.00" departLane="597602756#0_0" departPos="5.10" departSpeed="0.00" departDelay="2.00" arrival="115.00" arrivalLane="260998164#0_0" arrivalPos="257.55" arrivalSpeed="24.46" duration="97.00" routeLength="1239.91" waitingTime="0.00" waitingCount="0" stopTime="0.00" timeLoss="17.46" rerouteNo="0" devices="tripinfo_17" vType="DEFAULT_VEHTYPE" speedFactor="0.93" vaporized=""/>
    <tripinfo id="8" depart="11.00" departLane="422688973_0" departPos="5.10" departSpeed="0.00" departDelay="0.00" arrival="117.00" arrivalLane="-105681660#20_0" arrivalPos="806.12" arrivalSpeed="22.23" duration="106.00" routeLength="1352.23" waitingTime="14.00" waitingCount="1" stopTime="0.00" timeLoss="34.05" rerouteNo="0" devices="tripinfo_8" vType="DEFAULT_VEHTYPE" speedFactor="1.05" vaporized=""/>
    <tripinfo id="3" depart="6.00" departLane="105681660#12_0" departPos="5.10" departSpeed="0.00" departDelay="0.00" arrival="120.00" arrivalLane="422688976#1_0" arrivalPos="294.40" arrivalSpeed="25.69" duration="114.00" routeLength="1630.66" waitingTime="5.00" waitingCount="1" stopTime="0.00" timeLoss="21.48" rerouteNo="0" devices="tripinfo_3" vType="DEFAULT_VEHTYPE" speedFactor="0.94" vaporized=""/>
    <tripinfo id="18" depart="18.00" departLane="-260998164#3_0" departPos="5.10" departSpeed="0.00" departDelay="0.00" arrival="121.00" arrivalLane="-318908683#1_0" arrivalPos="71.22" arrivalSpeed="11.75" duration="103.00" routeLength="955.07" waitingTime="47.00" waitingCount="1" stopTime="0.00" timeLoss="59.29" rerouteNo="0" devices="tripinfo_18" vType="DEFAULT_VEHTYPE" speedFactor="0.88" vaporized=""/>
    <tripinfo id="20" depart="18.00" departLane="422688973_0" departPos="5.10" departSpeed="0.00" departDelay="0.00" arrival="121.00" arrivalLane="-597602753#1_0" arrivalPos="143.59" arrivalSpeed="20.69" duration="103.00" routeLength="1114.81" waitingTime="13.00" waitingCount="2" stopTime="0.00" timeLoss="32.90" rerouteNo="0" devices="tripinfo_20" vType="DEFAULT_VEHTYPE" speedFactor="0.94" vaporized=""/>
    <tripinfo id="9" depart="15.00" departLane="597602756#0_0" departPos="5.10" departSpeed="0.00" departDelay="4.00" arrival="124.00" arrivalLane="-318908683#1_0" arrivalPos="71.22" arrivalSpeed="11.74" duration="109.00" routeLength="1382.88" waitingTime="1.00" waitingCount="1" stopTime="0.00" timeLoss="23.13" rerouteNo="0" devices="tripinfo_9" vType="DEFAULT_VEHTYPE" speedFactor="0.89" vaporized=""/>
    <tripinfo id="39" depart="39.00" departLane="318908683#0_0" departPos="5.10" departSpeed="0.00" departDelay="0.00" arrival="127.00" arrivalLane="422688976#1_0" arrivalPos="294.40" arrivalSpeed="31.55" duration="88.00" routeLength="940.85" waitingTime="33.00" waitingCount="1" stopTime="0.00" timeLoss="57.02" rerouteNo="0" devices="tripinfo_39" vType="DEFAULT_VEHTYPE" speedFactor="1.18" vaporized=""/>
    <tripinfo id="19" depart="18.00" departLane="318908683#0_0" departPos="5.10" departSpeed="0.00" departDelay="0.00" arrival="128.00" arrivalLane="-597602753#1_0" arrivalPos="143.59" arrivalSpeed="19.69" duration="110.00" routeLength="1208.14" waitingTime="22.00" waitingCount="2" stopTime="0.00" timeLoss="50.05" rerouteNo="0" devices="tripinfo_19" vType="DEFAULT_VEHTYPE" speedFactor="0.94" vaporized=""/>
    <tripinfo id="22" depart="21.00" departLane="318908683#0_0" departPos="5.10" departSpeed="0.00" departDelay="1.00" arrival="129.00" arrivalLane="-597602753#1_0" arrivalPos="143.59" arrivalSpeed="22.20" duration="108.00" routeLength="1208.14" waitingTime="21.00" waitingCount="2" stopTime="0.00" timeLoss="52.20" rerouteNo="0" devices="tripinfo_22" vType="DEFAULT_VEHTYPE" speedFactor="1.02" vaporized=""/>
    <tripinfo id="49" depart="46.00" departLane="318908683#0_0" departPos="5.10" departSpeed="0.00" departDelay="0.00" arrival="129.00" arrivalLane="422688976#1_0" arrivalPos="294.40" arrivalSpeed="24.22" duration="83.00" routeLength="940.85" waitingTime="26.00" waitingCount="1" stopTime="0.00" timeLoss="42.49" rerouteNo="0" devices="tripinfo_49" vType="DEFAULT_VEHTYPE" speedFactor="0.90" vaporized=""/>
    <tripinfo id="33" depart="30.00" departLane="318908683#0_0" departPos="5.10" departSpeed="0.00" departDelay="0.00" arrival="131.00" arrivalLane="-597602753#1_0" arrivalPos="143.59" arrivalSpeed="23.84" duration="101.00" routeLength="1208.14" waitingTime="12.00" waitingCount="2" stopTime="0.00" timeLoss="51.67" rerouteNo="0" devices="tripinfo_33" vType="DEFAULT_VEHTYPE" speedFactor="1.15" vaporized=""/>
    <tripinfo id="12" depart="14.00" departLane="318908683#0_0" departPos="5.10" departSpeed="0.00" departDelay="0.00" arrival="133.00" arrivalLane="-105681660#20_0" arrivalPos="806.12" arrivalSpeed="24.23" duration="119.00" routeLength="1436.85" waitingTime="28.00" waitingCount="2" stopTime="0.00" timeLoss="56.48" rerouteNo="0" devices="tripinfo_12" vType="DEFAULT_VEHTYPE" speedFactor="1.09" vaporized=""/>
    <tripinfo id="61" depart="56.00" departLane="318908683#0_0" departPos="5.10" departSpeed="0.00" departDelay="0.00" arrival="134.00" arrivalLane="422688976#1_1" arrivalPos="294.40" arrivalSpeed="25.70" duration="78.00" routeLength="940.85" waitingTime="21.00" waitingCount="1" stopTime="0.00" timeLoss="40.14" rerouteNo="0" devices="tripinfo_61" vType="DEFAULT_VEHTYPE" speedFactor="0.97" vaporized=""/>
    <tripinfo id="5" depart="9.00" departLane="597602756#0_0" departPos="5.10" departSpeed="0.00" departDelay="0.00" arrival="136.00" arrivalLane="422688976#1_1" arrivalPos="294.40" arrivalSpeed="30.01" duration="127.00" routeLength="2140.23" waitingTime="3.00" waitingCount="1" stopTime="0.00" timeLoss="35.18" rerouteNo="0" devices="tripinfo_5" vType="DEFAULT_VEHTYPE" speedFactor="1.08" vaporized=""/>
    <tripinfo id="101" depart="91.00" departLane="-260998164#3_0" departPos="5.10" departSpeed="0.00" departDelay="0.00" arrival="136.00" arrivalLane="-318908683#1_0" arrivalPos="71.22" arrivalSpeed="14.13" duration="45.00" routeLength="955.07" waitingTime="0.00" waitingCount="0" stopTime="0.00" timeLoss="9.66" rerouteNo="0" devices="tripinfo_101" vType="DEFAULT_VEHTYPE" speedFactor="1.10" vaporized=""/>
    <tripinfo id="51" depart="52.00" departLane="318908683#0_0" departPos="5.10" departSpeed="0.00" departDelay="4.00" arrival="139.00" arrivalLane="918280984_0" arrivalPos="38.78" arrivalSpeed="11.46" duration="87.00" routeLength="693.58" waitingTime="39.00" waitingCount="1" stopTime="0.00" timeLoss="50.24" rerouteNo="0" devices="tripinfo_51" vType="DEFAULT_VEHTYPE" speedFactor="0.85" vaporized=""/>
    <tripinfo id="28" depart="26.00" departLane="-260998164#3_0" departPos="5.10" departSpeed="0.00" departDelay="0.00" arrival="141.00" arrivalLane="918280984_0" arrivalPos="38.78" arrivalSpeed="12.03" duration="115.00" routeLength="1455.19" waitingTime="31.00" waitingCount="2" stopTime="0.00" timeLoss="52.98" rerouteNo="0" devices="tripinfo_28" vType="DEFAULT_VEHTYPE" speedFactor="0.92" vaporized=""/>
    <tripinfo id="4" depart="9.00" departLane="105681660#12_0" departPos="5.10" departSpeed="0.00" departDelay="2.00" arrival="142.00" arrivalLane="260998164#0_0" arrivalPos="257.55" arrivalSpeed="27.34" duration="133.00" routeLength="2169.41" waitingTime="0.00" waitingCount="0" stopTime="0.00" timeLoss="27.73" rerouteNo="0" devices="tripinfo_4" vType="DEFAULT_VEHTYPE" speedFactor="1.01" vaporized=""/>
    <tripinfo id="29" depart="29.00" departLane="-260998164#3_0" departPos="5.10" departSpeed="0.00" departDelay="3.00" arrival="142.00" arrivalLane="918280984_0" arrivalPos="38.78" arrivalSpeed="12.48" duration="113.00" routeLength="1465.15" waitingTime="29.00" waitingCount="2" stopTime="0.00" timeLoss="53.26" rerouteNo="0" devices="tripinfo_29" vType="DEFAULT_VEHTYPE" speedFactor="0.95" vaporized=""/>
    <tripinfo id="84" depart="78.00" departLane="918280985_0" departPos="5.10" departSpeed="0.00" departDelay="0.00" arrival="142.00" arrivalLane="15374898#0-AddedOffRampEdge_0" arrivalPos="100.00" arrivalSpeed="27.77" duration="64.00" routeLength="996.81" waitingTime="6.00" waitingCount="1" stopTime="0.00" timeLoss="25.34" rerouteNo="0" devices="tripinfo_84" vType="DEFAULT_VEHTYPE" speedFactor="1.02" vaporized=""/>
    <tripinfo id="10" depart="12.00" departLane="597602753#0_0" departPos="5.10" departSpeed="0.00" departDelay="0.00" arrival="146.00" arrivalLane="15374898#0-AddedOffRampEdge_0" arrivalPos="100.00" arrivalSpeed="26.02" duration="134.00" routeLength="1964.42" waitingTime="0.00" waitingCount="0" stopTime="0.00" timeLoss="22.02" rerouteNo="0" devices="tripinfo_10" vType="DEFAULT_VEHTYPE" speedFactor="0.94" vaporized=""/>
    <tripinfo id="45" depart="44.00" departLane="422688973_0" departPos="5.10" departSpeed="0.00" departDelay="0.00" arrival="147.00" arrivalLane="-105681660#20_0" arrivalPos="806.12" arrivalSpeed="21.80" duration="103.00" routeLength="1352.23" waitingTime="16.00" waitingCount="1" stopTime="0.00" timeLoss="30.82" rerouteNo="0" devices="tripinfo_45" vType="DEFAULT_VEHTYPE" speedFactor="1.04" vaporized=""/>
    <tripinfo id="92" depart="85.00" departLane="918280985_0" departPos="5.10" departSpeed="0.00" departDelay="0.00" arrival="147.00" arrivalLane="15374898#0-AddedOffRampEdge_0" arrivalPos="100.00" arrivalSpeed="27.58" duration="62.00" routeLength="996.81" waitingTime="1.00" waitingCount="1" stopTime="0.00" timeLoss="23.75" rerouteNo="0" devices="tripinfo_92" vType="DEFAULT_VEHTYPE" speedFactor="1.02" vaporized=""/>
    <tripinfo id="13" depart="14.00" departLane="918280985_0" departPos="5.10" departSpeed="0.00" departDelay="0.00" arrival="148.00" arrivalLane="-597602756#0_0" arrivalPos="325.99" arrivalSpeed="22.41" duration="134.00" routeLength="1890.39" waitingTime="18.00" waitingCount="2" stopTime="0.00" timeLoss="51.37" rerouteNo="0" devices="tripinfo_13" vType="DEFAULT_VEHTYPE" speedFactor="1.03" vaporized=""/>
    <tripinfo id="11" depart="14.00" departLane="422685671#2_0" departPos="5.10" departSpeed="0.00" departDelay="0.00" arrival="149.00" arrivalLane="918280984_0" arrivalPos="38.78" arrivalSpeed="11.42" duration="135.00" routeLength="1069.78" waitingTime="66.00" waitingCount="1" stopTime="0.00" timeLoss="83.72" rerouteNo="0" devices="tripinfo_11" vType="DEFAULT_VEHTYPE" speedFactor="0.86" vaporized=""/>
    <tripinfo id="16" depart="18.00" departLane="597602753#0_0" departPos="5.10" departSpeed="0.00" departDelay="2.00" arrival="150.00" arrivalLane="15374898#0-AddedOffRampEdge_0" arrivalPos="100.00" arrivalSpeed="27.31" duration="132.00" routeLength="1964.42" waitingTime="0.00" waitingCount="0" stopTime="0.00" timeLoss="26.07" rerouteNo="0" devices="tripinfo_16" vType="DEFAULT_VEHTYPE" speedFactor="0.99" vaporized=""/>
    <tripinfo id="64" depart="60.00" departLane="422688973_0" departPos="5.10" departSpeed="0.00" departDelay="0.00" arrival="151.00" arrivalLane="-105681660#20_0" arrivalPos="806.12" arrivalSpeed="22.39" duration="91.00" routeLength="1352.23" waitingTime="0.00" waitingCount="0" stopTime="0.00" timeLoss="16.81" rerouteNo="0" devices="tripinfo_64" vType="DEFAULT_VEHTYPE" speedFactor="1.02" vaporized=""/>
    <tripinfo id="66" depart="63.00" departLane="422688973_0" departPos="5.10" departSpeed="0.00" departDelay="0.00" arrival="152.00" arrivalLane="-597602753#1_0" arrivalPos="143.59" arrivalSpeed="20.63" duration="89.00" routeLength="1114.81" waitingTime="0.00" waitingCount="0" stopTime="0.00" timeLoss="18.59" rerouteNo="0" devices="tripinfo_66" vType="DEFAULT_VEHTYPE" speedFactor="0.94" vaporized=""/>
    <tripinfo id="35" depart="33.00" departLane="318908683#0_0" departPos="5.10" departSpeed="0.00" departDelay="1.00" arrival="153.00" arrivalLane="-597602753#1_0" arrivalPos="143.59" arrivalSpeed="22.84" duration="120.00" routeLength="1208.14" waitingTime="30.00" waitingCount="3" stopTime="0.00" timeLoss="71.94" rerouteNo="0" devices="tripinfo_35" vType="DEFAULT_VEHTYPE" speedFactor="1.17" vaporized=""/>
    <tripinfo id="70" depart="69.00" departLane="-260998164#3_0" departPos="5.10" departSpeed="0.00" departDelay="0.00" arrival="156.00" arrivalLane="-597602756#0_0" arrivalPos="325.99" arrivalSpeed="22.70" duration="87.00" routeLength="1231.40" waitingTime="0.00" waitingCount="0" stopTime="0.00" timeLoss="17.46" rerouteNo="0" devices="tripinfo_70" vType="DEFAULT_VEHTYPE" speedFactor="1.04" vaporized=""/>
    <tripinfo id="31" depart="28.00" departLane="422688973_0" departPos="5.10" departSpeed="0.00" departDelay="1.00" arrival="159.00" arrivalLane="-597602756#0_0" arrivalPos="325.99" arrivalSpeed="20.00" duration="131.00" routeLength="1900.12" waitingTime="12.00" waitingCount="1" stopTime="0.00" timeLoss="41.88" rerouteNo="0" devices="tripinfo_31" vType="DEFAULT_VEHTYPE" speedFactor="0.93" vaporized=""/>
    <tripinfo id="38" depart="38.00" departLane="-260998164#3_0" departPos="5.10" departSpeed="0.00" departDelay="0.00" arrival="160.00" arrivalLane="-597602753#1_0" arrivalPos="143.59" arrivalSpeed="20.72" duration="122.00" routeLength="1969.75" waitingTime="7.00" waitingCount="1" stopTime="0.00" timeLoss="37.66" rerouteNo="0" devices="tripinfo_38" vType="DEFAULT_VEHTYPE" speedFactor="0.97" vaporized=""/>
    <tripinfo id="77" depart="76.00" departLane="422688973_0" departPos="5.10" departSpeed="0.00" departDelay="2.00" arrival="162.00" arrivalLane="15374898#0-AddedOffRampEdge_0" arrivalPos="100.00" arrivalSpeed="26.95" duration="86.00" routeLength="1006.54" waitingTime="27.00" waitingCount="1" stopTime="0.00" timeLoss="48.40" rerouteNo="0" devices="tripinfo_77" vType="DEFAULT_VEHTYPE" speedFactor="0.98" vaporized=""/>
    <tripinfo id="57" depart="56.00" departLane="597602756#0_0" departPos="5.10" departSpeed="0.00" departDelay="4.00" arrival="163.00" arrivalLane="260998164#0_0" arrivalPos="257.55" arrivalSpeed="26.68" duration="107.00" routeLength="1239.91" waitingTime="13.00" waitingCount="1" stopTime="0.00" timeLoss="33.18" rerouteNo="0" devices="tripinfo_57" vType="DEFAULT_VEHTYPE" speedFactor="1.00" vaporized=""/>
    <tripinfo id="41" depart="40.00" departLane="422688973_0" departPos="5.10" departSpeed="0.00" departDelay="0.00" arrival="165.00" arrivalLane="-597602756#0_0" arrivalPos="325.99" arrivalSpeed="19.61" duration="125.00" routeLength="1900.12" waitingTime="2.00" waitingCount="1" stopTime="0.00" timeLoss="32.41" rerouteNo="0" devices="tripinfo_41" vType="DEFAULT_VEHTYPE" speedFactor="0.90" vaporized=""/>
    <tripinfo id="60" depart="62.00" departLane="597602756#0_0" departPos="5.10" departSpeed="0.00" departDelay="6.00" arrival="165.00" arrivalLane="260998164#0_0" arrivalPos="257.55" arrivalSpeed="27.41" duration="103.00" routeLength="1239.91" waitingTime="10.00" waitingCount="1" stopTime="0.00" timeLoss="31.34" rerouteNo="0" devices="tripinfo_60" vType="DEFAULT_VEHTYPE" speedFactor="1.02" vaporized=""/>
    <tripinfo id="99" depart="88.00" departLane="422688973_0" departPos="5.10" departSpeed="0.00" departDelay="0.00" arrival="165.00" arrivalLane="15374898#0-AddedOffRampEdge_0" arrivalPos="100.00" arrivalSpeed="25.10" duration="77.00" routeLength="1006.54" waitingTime="16.00" waitingCount="1" stopTime="0.00" timeLoss="36.41" rerouteNo="0" devices="tripinfo_99" vType="DEFAULT_VEHTYPE" speedFactor="0.91" vaporized=""/>
    <tripinfo id="2" depart="5.00" departLane="918280985_0" departPos="5.10" departSpeed="0.00" departDelay="0.00" arrival="166.00" arrivalLane="-597602753#1_0" arrivalPos="143.59" arrivalSpeed="22.35" duration="161.00" routeLength="1136.78" waitingTime="64.00" waitingCount="2" stopTime="0.00" timeLoss="86.44" rerouteNo="0" devices="tripinfo_2" vType="DEFAULT_VEHTYPE" speedFactor="1.06" vaporized=""/>
    <tripinfo id="40" depart="42.00" departLane="318908683#0_0" departPos="5.10" departSpeed="0.00" departDelay="2.00" arrival="166.00" arrivalLane="-105681660#20_0" arrivalPos="806.12" arrivalSpeed="23.55" duration="124.00" routeLength="1436.85" waitingTime="25.00" waitingCount="2" stopTime="0.00" timeLoss="62.12" rerouteNo="0" devices="tripinfo_40" vType="DEFAULT_VEHTYPE" speedFactor="1.10" vaporized=""/>
    <tripinfo id="21" depart="19.00" departLane="918280985_0" departPos="5.10" departSpeed="0.00" departDelay="0.00" arrival="167.00" arrivalLane="-597602753#1_0" arrivalPos="143.59" arrivalSpeed="24.82" duration="148.00" routeLength="1072.66" waitingTime="57.00" waitingCount="3" stopTime="0.00" timeLoss="85.26" rerouteNo="0" devices="tripinfo_21" vType="DEFAULT_VEHTYPE" speedFactor="1.16" vaporized=""/>
    <tripinfo id="104" depart="94.00" departLane="422688973_0" departPos="5.10" departSpeed="0.00" departDelay="0.00" arrival="167.00" arrivalLane="15374898#0-AddedOffRampEdge_0" arrivalPos="100.00" arrivalSpeed="26.80" duration="73.00" routeLength="1006.54" waitingTime="11.00" waitingCount="1" stopTime="0.00" timeLoss="34.47" rerouteNo="0" devices="tripinfo_104" vType="DEFAULT_VEHTYPE" speedFactor="0.97" vaporized=""/>
    <tripinfo id="15" depart="15.00" departLane="105681660#12_0" departPos="5.10" departSpeed="0.00" departDelay="0.00" arrival="170.00" arrivalLane="-597602756#0_0" arrivalPos="325.99" arrivalSpeed="24.93" duration="155.00" routeLength="1877.95" waitingTime="52.00" waitingCount="1" stopTime="0.00" timeLoss="76.67" rerouteNo="0" devices="tripinfo_15" vType="DEFAULT_VEHTYPE" speedFactor="1.12" vaporized=""/>
    <tripinfo id="52" depart="48.00" departLane="597602753#0_0" departPos="5.10" departSpeed="0.00" departDelay="0.00" arrival="170.00" arrivalLane="422688976#1_0" arrivalPos="294.40" arrivalSpeed="23.43" duration="122.00" routeLength="1286.53" waitingTime="12.00" waitingCount="1" stopTime="0.00" timeLoss="29.91" rerouteNo="0" devices="tripinfo_52" vType="DEFAULT_VEHTYPE" speedFactor="0.85" vaporized=""/>
    <tripinfo id="72" depart="71.00" departLane="105681660#12_0" departPos="5.10" departSpeed="0.00" departDelay="1.00" arrival="170.00" arrivalLane="918280984_0" arrivalPos="38.78" arrivalSpeed="13.79" duration="99.00" routeLength="1405.13" waitingTime="0.00" waitingCount="0" stopTime="0.00" timeLoss="20.26" rerouteNo="0" devices="tripinfo_72" vType="DEFAULT_VEHTYPE" speedFactor="1.02" vaporized=""/>
    <tripinfo id="87" depart="82.00" departLane="597602756#0_0" departPos="5.10" departSpeed="0.00" departDelay="0.00" arrival="172.00" arrivalLane="260998164#0_0" arrivalPos="257.55" arrivalSpeed="26.39" duration="90.00" routeLength="1239.91" waitingTime="0.00" waitingCount="0" stopTime="0.00" timeLoss="15.22" rerouteNo="0" devices="tripinfo_87" vType="DEFAULT_VEHTYPE" speedFactor="0.98" vaporized=""/>
    <tripinfo id="100" depart="90.00" departLane="597602753#0_0" departPos="5.10" departSpeed="0.00" departDelay="1.00" arrival="172.00" arrivalLane="918280984_0" arrivalPos="38.78" arrivalSpeed="15.30" duration="82.00" routeLength="1061.00" waitingTime="0.00" waitingCount="0" stopTime="0.00" timeLoss="17.16" rerouteNo="0" devices="tripinfo_100" vType="DEFAULT_VEHTYPE" speedFactor="1.12" vaporized=""/>
    <tripinfo id="37" depart="34.00" departLane="-260998164#3_0" departPos="5.10" departSpeed="0.00" departDelay="0.00" arrival="173.00" arrivalLane="-105681660#20_0" arrivalPos="806.12" arrivalSpeed="21.89" duration="139.00" routeLength="2208.42" waitingTime="15.00" waitingCount="1" stopTime="0.00" timeLoss="46.56" rerouteNo="0" devices="tripinfo_37" vType="DEFAULT_VEHTYPE" speedFactor="1.02" vaporized=""/>
    <tripinfo id="91" depart="85.00" departLane="597602756#0_0" departPos="5.10" departSpeed="0.00" departDelay="1.00" arrival="174.00" arrivalLane="260998164#0_0" arrivalPos="257.55" arrivalSpeed="27.17" duration="89.00" routeLength="1239.91" waitingTime="0.00" waitingCount="0" stopTime="0.00" timeLoss="17.51" rerouteNo="0" devices="tripinfo_91" vType="DEFAULT_VEHTYPE" speedFactor="1.02" vaporized=""/>
    <tripinfo id="23" depart="21.00" departLane="597602753#0_0" departPos="5.10" departSpeed="0.00" departDelay="0.00" arrival="175.00" arrivalLane="-597602756#0_0" arrivalPos="325.99" arrivalSpeed="21.89" duration="154.00" routeLength="1646.04" waitingTime="50.00" waitingCount="1" stopTime="0.00" timeLoss="79.41" rerouteNo="0" devices="tripinfo_23" vType="DEFAULT_VEHTYPE" speedFactor="1.01" vaporized=""/>
    <tripinfo id="82" depart="79.00" departLane="597602753#0_0" departPos="5.10" departSpeed="0.00" departDelay="2.00" arrival="175.00" arrivalLane="-105681660#20_0" arrivalPos="806.12" arrivalSpeed="21.88" duration="96.00" routeLength="1387.70" waitingTime="11.00" waitingCount="2" stopTime="0.00" timeLoss="34.29" rerouteNo="0" devices="tripinfo_82" vType="DEFAULT_VEHTYPE" speedFactor="1.03" vaporized=""/>
    <tripinfo id="114" depart="108.00" departLane="105681660#12_0" departPos="5.10" departSpeed="0.00" departDelay="0.00" arrival="182.00" arrivalLane="-597602753#1_0" arrivalPos="143.59" arrivalSpeed="23.30" duration="74.00" routeLength="1380.56" waitingTime="0.00" waitingCount="0" stopTime="0.00" timeLoss="16.03" rerouteNo="0" devices="tripinfo_114" vType="DEFAULT_VEHTYPE" speedFactor="1.10" vaporized=""/>
    <tripinfo id="88" depart="83.00" departLane="318908683#0_0" departPos="5.10" departSpeed="0.00" departDelay="0.00" arrival="188.00" arrivalLane="260998164#0_0" arrivalPos="257.55" arrivalSpeed="27.12" duration="105.00" routeLength="939.98" waitingTime="54.00" waitingCount="1" stopTime="0.00" timeLoss="67.40" rerouteNo="0" devices="tripinfo_88" vType="DEFAULT_VEHTYPE" speedFactor="1.00" vaporized=""/>
    <tripinfo id="79" depart="75.00" departLane="422685671#2_0" departPos="5.10" departSpeed="0.00" departDelay="0.00" arrival="191.00" arrivalLane="-597602753#1_0" arrivalPos="143.59" arrivalSpeed="20.56" duration="116.00" routeLength="1584.34" waitingTime="13.00" waitingCount="1" stopTime="0.00" timeLoss="44.67" rerouteNo="0" devices="tripinfo_79" vType="DEFAULT_VEHTYPE" speedFactor="0.98" vaporized=""/>
    <tripinfo id="36" depart="33.00" departLane="422685671#2_0" departPos="5.10" departSpeed="0.00" departDelay="0.00" arrival="193.00" arrivalLane="-597602756#0_0" arrivalPos="325.99" arrivalSpeed="20.87" duration="160.00" routeLength="1778.05" waitingTime="52.00" waitingCount="1" stopTime="0.00" timeLoss="80.84" rerouteNo="0" devices="tripinfo_36" vType="DEFAULT_VEHTYPE" speedFactor="0.99" vaporized=""/>
    <tripinfo id="106" depart="96.00" departLane="318908683#0_0" departPos="5.10" departSpeed="0.00" departDelay="0.00" arrival="193.00" arrivalLane="260998164#0_0" arrivalPos="257.55" arrivalSpeed="23.67" duration="97.00" routeLength="939.98" waitingTime="43.00" waitingCount="1" stopTime="0.00" timeLoss="55.22" rerouteNo="0" devices="tripinfo_106" vType="DEFAULT_VEHTYPE" speedFactor="0.89" vaporized=""/>
    <tripinfo id="62" depart="59.00" departLane="-260998164#3_0" departPos="5.10" departSpeed="0.00" departDelay="0.00" arrival="197.00" arrivalLane="-105681660#20_0" arrivalPos="806.12" arrivalSpeed="23.48" duration="138.00" routeLength="2208.42" waitingTime="19.00" waitingCount="1" stopTime="0.00" timeLoss="50.81" rerouteNo="0" devices="tripinfo_62" vType="DEFAULT_VEHTYPE" speedFactor="1.08" vaporized=""/>
    <tripinfo id="32" depart="30.00" departLane="597602756#0_0" departPos="5.10" departSpeed="0.00" departDelay="1.00" arrival="198.00" arrivalLane="-105681660#20_0" arrivalPos="806.12" arrivalSpeed="24.58" duration="168.00" routeLength="1867.67" waitingTime="63.00" waitingCount="2" stopTime="0.00" timeLoss="95.27" rerouteNo="0" devices="tripinfo_32" vType="DEFAULT_VEHTYPE" speedFactor="1.18" vaporized=""/>
    <tripinfo id="43" depart="43.00" departLane="422685671#2_0" departPos="5.10" departSpeed="0.00" departDelay="0.00" arrival="198.00" arrivalLane="-597602756#0_0" arrivalPos="325.99" arrivalSpeed="21.25" duration="155.00" routeLength="1778.05" waitingTime="42.00" waitingCount="1" stopTime="0.00" timeLoss="72.82" rerouteNo="0" devices="tripinfo_43" vType="DEFAULT_VEHTYPE" speedFactor="0.96" vaporized=""/>
    <tripinfo id="71" depart="70.00" departLane="422685671#2_0" departPos="5.10" departSpeed="0.00" departDelay="0.00" arrival="202.00" arrivalLane="422688976#1_1" arrivalPos="294.40" arrivalSpeed="27.73" duration="132.00" routeLength="1317.05" waitingTime="54.00" waitingCount="2" stopTime="0.00" timeLoss="83.77" rerouteNo="0" devices="tripinfo_71" vType="DEFAULT_VEHTYPE" speedFactor="1.02" vaporized=""/>
    <tripinfo id="56" depart="51.00" departLane="-260998164#3_0" departPos="5.10" departSpeed="0.00" departDelay="0.00" arrival="203.00" arrivalLane="422688976#1_0" arrivalPos="294.40" arrivalSpeed="26.94" duration="152.00" routeLength="1702.46" waitingTime="58.00" waitingCount="2" stopTime="0.00" timeLoss="89.48" rerouteNo="0" devices="tripinfo_56" vType="DEFAULT_VEHTYPE" speedFactor="1.00" vaporized=""/>
    <tripinfo id="25" depart="22.00" departLane="422685671#2_0" departPos="5.10" departSpeed="0.00" departDelay="0.00" arrival="204.00" arrivalLane="422688976#1_1" arrivalPos="294.40" arrivalSpeed="24.06" duration="182.00" routeLength="1317.05" waitingTime="100.00" waitingCount="2" stopTime="0.00" timeLoss="125.91" rerouteNo="0" devices="tripinfo_25" vType="DEFAULT_VEHTYPE" speedFactor="0.89" vaporized=""/>
    <tripinfo id="48" depart="46.00" departLane="918280985_0" departPos="5.10" departSpeed="0.00" departDelay="0.00" arrival="205.00" arrivalLane="260998164#0_0" arrivalPos="257.55" arrivalSpeed="26.74" duration="159.00" routeLength="1460.33" waitingTime="78.00" waitingCount="2" stopTime="0.00" timeLoss="101.43" rerouteNo="0" devices="tripinfo_48" vType="DEFAULT_VEHTYPE" speedFactor="1.00" vaporized=""/>