<?xml version="1.0" encoding="UTF-8"?>

<!-- generated on 2023-04-29 21:53:52 by Eclipse SUMO sumo Version 1.16.0
<configuration xmlns:xsi="http://www.w3.org/2001/XMLSchema-instance" xsi:noNamespaceSchemaLocation="http://sumo.dlr.de/xsd/sumoConfiguration.xsd">

    <input>
        <net-file value="021/../configurations/maps/4corners_neighborhoods.net.xml"/>
        <route-files value="021/Trips_File_021.rou.xml"/>
        <additional-files value="021/../edgedata.add.xml"/>
    </input>

    <output>
        <output-prefix value="021/"/>
        <summary-output value="021/../summary_021.xml"/>
        <tripinfo-output value="021/../tripinfo_021.xml"/>
    </output>

    <time>
        <begin value="0"/>
    </time>

    <processing>
        <route-steps value="200"/>
        <no-internal-links value="False"/>
        <time-to-teleport value="300"/>
        <time-to-teleport.highways value="0"/>
        <eager-insert value="False"/>
    </processing>

    <report>
        <verbose value="true"/>
        <no-warnings value="False"/>
        <log value="021/../iteration_021.sumo.log"/>
        <no-step-log value="true"/>
    </report>

    <mesoscopic>
        <mesosim value="true"/>
        <meso-recheck value="0"/>
    </mesoscopic>

    <random_number>
        <random value="False"/>
    </random_number>

</configuration>
-->

<tripinfos xmlns:xsi="http://www.w3.org/2001/XMLSchema-instance" xsi:noNamespaceSchemaLocation="http://sumo.dlr.de/xsd/tripinfo_file.xsd">
    <tripinfo id="7" depart="7.00" departLane="" departPos="0.00" departSpeed="11.54" departDelay="0.00" arrival="39.00" arrivalLane="" arrivalPos="71.22" arrivalSpeed="11.54" duration="32.00" routeLength="617.84" waitingTime="0.00" waitingCount="0" stopTime="0.00" timeLoss="0.00" rerouteNo="0" devices="tripinfo_7" vType="DEFAULT_VEHTYPE" speedFactor="0.83" vaporized=""/>
    <tripinfo id="3" depart="2.00" departLane="" departPos="0.00" departSpeed="13.03" departDelay="0.00" arrival="41.00" arrivalLane="" arrivalPos="100.00" arrivalSpeed="26.07" duration="39.00" routeLength="958.05" waitingTime="0.00" waitingCount="0" stopTime="0.00" timeLoss="0.00" rerouteNo="0" devices="tripinfo_3" vType="DEFAULT_VEHTYPE" speedFactor="0.94" vaporized=""/>
    <tripinfo id="20" depart="19.00" departLane="" departPos="0.00" departSpeed="26.01" departDelay="0.00" arrival="46.00" arrivalLane="" arrivalPos="71.22" arrivalSpeed="13.00" duration="27.00" routeLength="612.32" waitingTime="0.00" waitingCount="0" stopTime="0.00" timeLoss="0.00" rerouteNo="0" devices="tripinfo_20" vType="DEFAULT_VEHTYPE" speedFactor="0.94" vaporized=""/>
    <tripinfo id="14" depart="12.00" departLane="" departPos="0.00" departSpeed="20.28" departDelay="0.00" arrival="47.00" arrivalLane="" arrivalPos="71.22" arrivalSpeed="13.00" duration="35.00" routeLength="848.93" waitingTime="1.46" waitingCount="0" stopTime="0.00" timeLoss="3.32" rerouteNo="0" devices="tripinfo_14" vType="DEFAULT_VEHTYPE" speedFactor="1.05" vaporized=""/>
    <tripinfo id="9" depart="8.00" departLane="" departPos="0.00" departSpeed="9.90" departDelay="0.00" arrival="51.00" arrivalLane="" arrivalPos="100.00" arrivalSpeed="24.61" duration="43.00" routeLength="958.05" waitingTime="0.00" waitingCount="0" stopTime="0.00" timeLoss="1.15" rerouteNo="0" devices="tripinfo_9" vType="DEFAULT_VEHTYPE" speedFactor="0.89" vaporized=""/>
    <tripinfo id="5" depart="3.00" departLane="" departPos="0.00" departSpeed="30.08" departDelay="0.00" arrival="56.00" arrivalLane="" arrivalPos="143.59" arrivalSpeed="24.06" duration="53.00" routeLength="1010.43" waitingTime="0.00" waitingCount="0" stopTime="0.00" timeLoss="0.00" rerouteNo="0" devices="tripinfo_5" vType="DEFAULT_VEHTYPE" speedFactor="1.08" vaporized=""/>
    <tripinfo id="12" depart="12.00" departLane="" departPos="0.00" departSpeed="30.30" departDelay="0.00" arrival="59.00" arrivalLane="" arrivalPos="38.78" arrivalSpeed="15.15" duration="47.00" routeLength="1301.36" waitingTime="0.57" waitingCount="0" stopTime="0.00" timeLoss="2.77" rerouteNo="0" devices="tripinfo_12" vType="DEFAULT_VEHTYPE" speedFactor="1.09" vaporized=""/>
    <tripinfo id="4" depart="3.00" departLane="" departPos="0.00" departSpeed="22.45" departDelay="0.00" arrival="63.00" arrivalLane="" arrivalPos="806.12" arrivalSpeed="22.45" duration="60.00" routeLength="1333.25" waitingTime="0.00" waitingCount="0" stopTime="0.00" timeLoss="0.00" rerouteNo="0" devices="tripinfo_4" vType="DEFAULT_VEHTYPE" speedFactor="1.01" vaporized=""/>
    <tripinfo id="35" depart="43.00" departLane="" departPos="0.00" departSpeed="32.55" departDelay="0.00" arrival="64.00" arrivalLane="" arrivalPos="71.22" arrivalSpeed="16.28" duration="21.00" routeLength="612.32" waitingTime="0.00" waitingCount="0" stopTime="0.00" timeLoss="0.00" rerouteNo="0" devices="tripinfo_35" vType="DEFAULT_VEHTYPE" speedFactor="1.17" vaporized=""/>
    <tripinfo id="2" depart="0.00" departLane="" departPos="0.00" departSpeed="23.55" departDelay="0.00" arrival="67.00" arrivalLane="" arrivalPos="38.78" arrivalSpeed="14.72" duration="67.00" routeLength="1632.15" waitingTime="0.00" waitingCount="0" stopTime="0.00" timeLoss="0.00" rerouteNo="0" devices="tripinfo_2" vType="DEFAULT_VEHTYPE" speedFactor="1.06" vaporized=""/>
    <tripinfo id="28" depart="30.00" departLane="" departPos="0.00" departSpeed="25.48" departDelay="0.00" arrival="67.00" arrivalLane="" arrivalPos="71.22" arrivalSpeed="12.74" duration="37.00" routeLength="848.93" waitingTime="0.77" waitingCount="0" stopTime="0.00" timeLoss="0.77" rerouteNo="0" devices="tripinfo_28" vType="DEFAULT_VEHTYPE" speedFactor="0.92" vaporized=""/>
    <tripinfo id="10" depart="8.00" departLane="" departPos="0.00" departSpeed="26.05" departDelay="0.00" arrival="68.00" arrivalLane="" arrivalPos="294.40" arrivalSpeed="26.05" duration="60.00" routeLength="1556.98" waitingTime="0.00" waitingCount="0" stopTime="0.00" timeLoss="0.00" rerouteNo="0" devices="tripinfo_10" vType="DEFAULT_VEHTYPE" speedFactor="0.94" vaporized=""/>
    <tripinfo id="23" depart="21.00" departLane="" departPos="0.00" departSpeed="14.03" departDelay="0.00" arrival="80.00" arrivalLane="" arrivalPos="143.59" arrivalSpeed="22.45" duration="59.00" routeLength="1015.95" waitingTime="0.00" waitingCount="0" stopTime="0.00" timeLoss="0.00" rerouteNo="0" devices="tripinfo_23" vType="DEFAULT_VEHTYPE" speedFactor="1.01" vaporized=""/>
    <tripinfo id="39" depart="48.00" departLane="" departPos="0.00" departSpeed="16.39" departDelay="0.00" arrival="80.00" arrivalLane="" arrivalPos="100.00" arrivalSpeed="32.77" duration="32.00" routeLength="958.05" waitingTime="0.00" waitingCount="0" stopTime="0.00" timeLoss="0.26" rerouteNo="0" devices="tripinfo_39" vType="DEFAULT_VEHTYPE" speedFactor="1.18" vaporized=""/>
    <tripinfo id="24" depart="23.00" departLane="" departPos="0.00" departSpeed="27.09" departDelay="0.00" arrival="83.00" arrivalLane="" arrivalPos="143.59" arrivalSpeed="21.66" duration="60.00" routeLength="1010.43" waitingTime="1.47" waitingCount="0" stopTime="0.00" timeLoss="1.47" rerouteNo="0" devices="tripinfo_24" vType="DEFAULT_VEHTYPE" speedFactor="0.97" vaporized=""/>
    <tripinfo id="26" depart="29.00" departLane="" departPos="0.00" departSpeed="22.94" departDelay="0.00" arrival="83.00" arrivalLane="" arrivalPos="294.40" arrivalSpeed="22.94" duration="54.00" routeLength="1225.09" waitingTime="0.00" waitingCount="0" stopTime="0.00" timeLoss="0.00" rerouteNo="0" devices="tripinfo_26" vType="DEFAULT_VEHTYPE" speedFactor="0.83" vaporized=""/>
    <tripinfo id="13" depart="12.00" departLane="" departPos="0.00" departSpeed="28.51" departDelay="0.00" arrival="84.00" arrivalLane="" arrivalPos="806.12" arrivalSpeed="22.80" duration="72.00" routeLength="1738.65" waitingTime="0.00" waitingCount="0" stopTime="0.00" timeLoss="0.00" rerouteNo="0" devices="tripinfo_13" vType="DEFAULT_VEHTYPE" speedFactor="1.03" vaporized=""/>
    <tripinfo id="6" depart="4.00" departLane="" departPos="0.00" departSpeed="20.92" departDelay="0.00" arrival="86.00" arrivalLane="" arrivalPos="100.00" arrivalSpeed="28.62" duration="82.00" routeLength="1786.97" waitingTime="0.00" waitingCount="0" stopTime="0.00" timeLoss="0.92" rerouteNo="0" devices="tripinfo_6" vType="DEFAULT_VEHTYPE" speedFactor="1.03" vaporized=""/>
    <tripinfo id="15" depart="13.00" departLane="" departPos="0.00" departSpeed="24.95" departDelay="0.00" arrival="86.00" arrivalLane="" arrivalPos="325.99" arrivalSpeed="24.95" duration="73.00" routeLength="1811.14" waitingTime="0.00" waitingCount="0" stopTime="0.00" timeLoss="0.00" rerouteNo="0" devices="tripinfo_15" vType="DEFAULT_VEHTYPE" speedFactor="1.12" vaporized=""/>
    <tripinfo id="27" depart="30.00" departLane="" departPos="0.00" departSpeed="12.12" departDelay="0.00" arrival="88.00" arrivalLane="" arrivalPos="143.59" arrivalSpeed="19.39" duration="58.00" routeLength="1084.30" waitingTime="0.00" waitingCount="0" stopTime="0.00" timeLoss="0.00" rerouteNo="0" devices="tripinfo_27" vType="DEFAULT_VEHTYPE" speedFactor="0.87" vaporized=""/>
    <tripinfo id="18" depart="17.00" departLane="" departPos="0.00" departSpeed="19.52" departDelay="0.00" arrival="91.00" arrivalLane="" arrivalPos="71.22" arrivalSpeed="12.20" duration="74.00" routeLength="1246.20" waitingTime="0.00" waitingCount="0" stopTime="0.00" timeLoss="0.00" rerouteNo="0" devices="tripinfo_18" vType="DEFAULT_VEHTYPE" speedFactor="0.88" vaporized=""/>
    <tripinfo id="17" depart="16.00" departLane="" departPos="0.00" departSpeed="12.87" departDelay="0.00" arrival="94.00" arrivalLane="" arrivalPos="806.12" arrivalSpeed="20.59" duration="78.00" routeLength="1295.54" waitingTime="0.00" waitingCount="0" stopTime="0.00" timeLoss="0.00" rerouteNo="0" devices="tripinfo_17" vType="DEFAULT_VEHTYPE" speedFactor="0.93" vaporized=""/>
    <tripinfo id="22" depart="20.00" departLane="" departPos="0.00" departSpeed="19.75" departDelay="0.00" arrival="94.00" arrivalLane="" arrivalPos="143.59" arrivalSpeed="22.62" duration="74.00" routeLength="1532.30" waitingTime="0.00" waitingCount="0" stopTime="0.00" timeLoss="5.40" rerouteNo="0" devices="tripinfo_22" vType="DEFAULT_VEHTYPE" speedFactor="1.02" vaporized=""/>
    <tripinfo id="19" depart="18.00" departLane="" departPos="0.00" departSpeed="18.01" departDelay="0.00" arrival="96.00" arrivalLane="" arrivalPos="38.78" arrivalSpeed="13.07" duration="78.00" routeLength="1632.15" waitingTime="0.00" waitingCount="0" stopTime="0.00" timeLoss="2.79" rerouteNo="0" devices="tripinfo_19" vType="DEFAULT_VEHTYPE" speedFactor="0.94" vaporized=""/>
    <tripinfo id="31" depart="36.00" departLane="" departPos="0.00" departSpeed="25.87" departDelay="0.00" arrival="98.00" arrivalLane="" arrivalPos="143.59" arrivalSpeed="20.69" duration="62.00" routeLength="1010.43" waitingTime="0.00" waitingCount="0" stopTime="0.00" timeLoss="0.00" rerouteNo="0" devices="tripinfo_31" vType="DEFAULT_VEHTYPE" speedFactor="0.93" vaporized=""/>
    <tripinfo id="21" depart="20.00" departLane="" departPos="0.00" departSpeed="25.73" departDelay="0.00" arrival="99.00" arrivalLane="" arrivalPos="100.00" arrivalSpeed="32.17" duration="79.00" routeLength="1786.97" waitingTime="0.02" waitingCount="0" stopTime="0.00" timeLoss="6.25" rerouteNo="0" devices="tripinfo_21" vType="DEFAULT_VEHTYPE" speedFactor="1.16" vaporized=""/>
    <tripinfo id="33" depart="41.00" departLane="" departPos="0.00" departSpeed="32.07" departDelay="0.00" arrival="99.00" arrivalLane="" arrivalPos="143.59" arrivalSpeed="20.69" duration="58.00" routeLength="1459.06" waitingTime="0.00" waitingCount="0" stopTime="0.00" timeLoss="4.78" rerouteNo="0" devices="tripinfo_33" vType="DEFAULT_VEHTYPE" speedFactor="1.15" vaporized=""/>
    <tripinfo id="45" depart="53.00" departLane="" departPos="0.00" departSpeed="28.83" departDelay="0.00" arrival="99.00" arrivalLane="" arrivalPos="257.55" arrivalSpeed="28.83" duration="46.00" routeLength="1324.09" waitingTime="0.00" waitingCount="0" stopTime="0.00" timeLoss="0.00" rerouteNo="0" devices="tripinfo_45" vType="DEFAULT_VEHTYPE" speedFactor="1.04" vaporized=""/>
    <tripinfo id="70" depart="76.00" departLane="" departPos="0.00" departSpeed="28.89" departDelay="0.00" arrival="100.00" arrivalLane="" arrivalPos="71.22" arrivalSpeed="14.45" duration="24.00" routeLength="612.32" waitingTime="0.00" waitingCount="0" stopTime="0.00" timeLoss="0.00" rerouteNo="0" devices="tripinfo_70" vType="DEFAULT_VEHTYPE" speedFactor="1.04" vaporized=""/>
    <tripinfo id="8" depart="8.00" departLane="" departPos="0.00" departSpeed="23.24" departDelay="0.00" arrival="101.00" arrivalLane="" arrivalPos="257.55" arrivalSpeed="29.05" duration="93.00" routeLength="2030.30" waitingTime="0.00" waitingCount="0" stopTime="0.00" timeLoss="2.25" rerouteNo="0" devices="tripinfo_8" vType="DEFAULT_VEHTYPE" speedFactor="1.05" vaporized=""/>
    <tripinfo id="37" depart="45.00" departLane="" departPos="0.00" departSpeed="14.16" departDelay="0.00" arrival="103.00" arrivalLane="" arrivalPos="143.59" arrivalSpeed="22.66" duration="58.00" routeLength="1015.95" waitingTime="0.00" waitingCount="0" stopTime="0.00" timeLoss="0.00" rerouteNo="0" devices="tripinfo_37" vType="DEFAULT_VEHTYPE" speedFactor="1.02" vaporized=""/>
    <tripinfo id="11" depart="12.00" departLane="" departPos="0.00" departSpeed="19.04" departDelay="0.00" arrival="104.00" arrivalLane="" arrivalPos="294.40" arrivalSpeed="23.80" duration="92.00" routeLength="1887.77" waitingTime="0.00" waitingCount="0" stopTime="0.00" timeLoss="0.00" rerouteNo="0" devices="tripinfo_11" vType="DEFAULT_VEHTYPE" speedFactor="0.86" vaporized=""/>
    <tripinfo id="36" depart="44.00" departLane="" departPos="0.00" departSpeed="22.10" departDelay="0.00" arrival="105.00" arrivalLane="" arrivalPos="143.59" arrivalSpeed="22.10" duration="61.00" routeLength="1330.63" waitingTime="0.65" waitingCount="0" stopTime="0.00" timeLoss="0.65" rerouteNo="0" devices="tripinfo_36" vType="DEFAULT_VEHTYPE" speedFactor="0.99" vaporized=""/>
    <tripinfo id="41" depart="51.00" departLane="" departPos="0.00" departSpeed="25.02" departDelay="0.00" arrival="105.00" arrivalLane="" arrivalPos="38.78" arrivalSpeed="12.51" duration="54.00" routeLength="1301.36" waitingTime="0.00" waitingCount="0" stopTime="0.00" timeLoss="0.00" rerouteNo="0" devices="tripinfo_41" vType="DEFAULT_VEHTYPE" speedFactor="0.90" vaporized=""/>
    <tripinfo id="63" depart="72.00" departLane="" departPos="0.00" departSpeed="15.55" departDelay="0.00" arrival="105.00" arrivalLane="" arrivalPos="100.00" arrivalSpeed="31.09" duration="33.00" routeLength="958.05" waitingTime="0.00" waitingCount="0" stopTime="0.00" timeLoss="0.00" rerouteNo="0" devices="tripinfo_63" vType="DEFAULT_VEHTYPE" speedFactor="1.12" vaporized=""/>
    <tripinfo id="32" depart="38.00" departLane="" departPos="0.00" departSpeed="32.74" departDelay="0.00" arrival="107.00" arrivalLane="" arrivalPos="143.59" arrivalSpeed="23.90" duration="69.00" routeLength="1790.95" waitingTime="1.71" waitingCount="0" stopTime="0.00" timeLoss="6.31" rerouteNo="0" devices="tripinfo_32" vType="DEFAULT_VEHTYPE" speedFactor="1.18" vaporized=""/>
    <tripinfo id="57" depart="69.00" departLane="" departPos="0.00" departSpeed="27.67" departDelay="0.00" arrival="107.00" arrivalLane="" arrivalPos="38.78" arrivalSpeed="13.49" duration="38.00" routeLength="969.47" waitingTime="0.00" waitingCount="0" stopTime="0.00" timeLoss="0.79" rerouteNo="0" devices="tripinfo_57" vType="DEFAULT_VEHTYPE" speedFactor="1.00" vaporized=""/>
    <tripinfo id="40" depart="51.00" departLane="" departPos="0.00" departSpeed="15.31" departDelay="0.00" arrival="109.00" arrivalLane="" arrivalPos="806.12" arrivalSpeed="24.49" duration="58.00" routeLength="1363.89" waitingTime="0.64" waitingCount="0" stopTime="0.00" timeLoss="0.64" rerouteNo="0" devices="tripinfo_40" vType="DEFAULT_VEHTYPE" speedFactor="1.10" vaporized=""/>
    <tripinfo id="50" depart="60.00" departLane="" departPos="0.00" departSpeed="24.36" departDelay="0.00" arrival="110.00" arrivalLane="" arrivalPos="100.00" arrivalSpeed="24.36" duration="50.00" routeLength="1209.17" waitingTime="0.00" waitingCount="0" stopTime="0.00" timeLoss="0.00" rerouteNo="0" devices="tripinfo_50" vType="DEFAULT_VEHTYPE" speedFactor="0.88" vaporized=""/>
    <tripinfo id="30" depart="35.00" departLane="" departPos="0.00" departSpeed="25.15" departDelay="0.00" arrival="111.00" arrivalLane="" arrivalPos="71.22" arrivalSpeed="15.72" duration="76.00" routeLength="1703.70" waitingTime="0.00" waitingCount="0" stopTime="0.00" timeLoss="0.00" rerouteNo="0" devices="tripinfo_30" vType="DEFAULT_VEHTYPE" speedFactor="1.13" vaporized=""/>
    <tripinfo id="54" depart="64.00" departLane="" departPos="0.00" departSpeed="28.25" departDelay="0.00" arrival="111.00" arrivalLane="" arrivalPos="100.00" arrivalSpeed="24.36" duration="47.00" routeLength="1209.17" waitingTime="0.37" waitingCount="0" stopTime="0.00" timeLoss="3.53" rerouteNo="0" devices="tripinfo_54" vType="DEFAULT_VEHTYPE" speedFactor="1.02" vaporized=""/>
    <tripinfo id="16" depart="16.00" departLane="" departPos="0.00" departSpeed="22.02" departDelay="0.00" arrival="112.00" arrivalLane="" arrivalPos="257.55" arrivalSpeed="27.53" duration="96.00" routeLength="2030.30" waitingTime="0.00" waitingCount="0" stopTime="0.00" timeLoss="0.00" rerouteNo="0" devices="tripinfo_16" vType="DEFAULT_VEHTYPE" speedFactor="0.99" vaporized=""/>
    <tripinfo id="34" depart="43.00" departLane="" departPos="0.00" departSpeed="27.92" departDelay="0.00" arrival="114.00" arrivalLane="" arrivalPos="806.12" arrivalSpeed="22.34" duration="71.00" routeLength="1290.02" waitingTime="0.96" waitingCount="0" stopTime="0.00" timeLoss="0.96" rerouteNo="0" devices="tripinfo_34" vType="DEFAULT_VEHTYPE" speedFactor="1.01" vaporized=""/>
    <tripinfo id="42" depart="52.00" departLane="" departPos="0.00" departSpeed="22.89" departDelay="0.00" arrival="115.00" arrivalLane="" arrivalPos="257.55" arrivalSpeed="28.62" duration="63.00" routeLength="1144.15" waitingTime="0.00" waitingCount="0" stopTime="0.00" timeLoss="0.00" rerouteNo="0" devices="tripinfo_42" vType="DEFAULT_VEHTYPE" speedFactor="1.03" vaporized=""/>
    <tripinfo id="44" depart="52.00" departLane="" departPos="0.00" departSpeed="13.38" departDelay="0.00" arrival="115.00" arrivalLane="" arrivalPos="806.12" arrivalSpeed="22.34" duration="63.00" routeLength="1363.89" waitingTime="1.72" waitingCount="0" stopTime="0.00" timeLoss="5.21" rerouteNo="0" devices="tripinfo_44" vType="DEFAULT_VEHTYPE" speedFactor="1.09" vaporized=""/>
    <tripinfo id="81" depart="88.00" departLane="" departPos="0.00" departSpeed="9.16" departDelay="0.00" arrival="115.00" arrivalLane="" arrivalPos="71.22" arrivalSpeed="15.10" duration="27.00" routeLength="617.84" waitingTime="0.00" waitingCount="0" stopTime="0.00" timeLoss="2.00" rerouteNo="0" devices="tripinfo_81" vType="DEFAULT_VEHTYPE" speedFactor="1.09" vaporized=""/>
    <tripinfo id="25" depart="27.00" departLane="" departPos="0.00" departSpeed="19.77" departDelay="0.00" arrival="116.00" arrivalLane="" arrivalPos="294.40" arrivalSpeed="24.71" duration="89.00" routeLength="1887.77" waitingTime="0.00" waitingCount="0" stopTime="0.00" timeLoss="0.00" rerouteNo="0" devices="tripinfo_25" vType="DEFAULT_VEHTYPE" speedFactor="0.89" vaporized=""/>
    <tripinfo id="47" depart="56.00" departLane="" departPos="0.00" departSpeed="30.22" departDelay="0.00" arrival="116.00" arrivalLane="" arrivalPos="325.99" arrivalSpeed="24.17" duration="60.00" routeLength="1146.34" waitingTime="0.00" waitingCount="0" stopTime="0.00" timeLoss="0.00" rerouteNo="0" devices="tripinfo_47" vType="DEFAULT_VEHTYPE" speedFactor="1.09" vaporized=""/>
    <tripinfo id="51" depart="61.00" departLane="" departPos="0.00" departSpeed="23.62" departDelay="0.00" arrival="118.00" arrivalLane="" arrivalPos="257.55" arrivalSpeed="23.62" duration="57.00" routeLength="1324.09" waitingTime="0.63" waitingCount="0" stopTime="0.00" timeLoss="0.63" rerouteNo="0" devices="tripinfo_51" vType="DEFAULT_VEHTYPE" speedFactor="0.85" vaporized=""/>
    <tripinfo id="74" depart="82.00" departLane="" departPos="0.00" departSpeed="13.06" departDelay="0.00" arrival="118.00" arrivalLane="" arrivalPos="294.40" arrivalSpeed="26.11" duration="36.00" routeLength="850.33" waitingTime="0.00" waitingCount="0" stopTime="0.00" timeLoss="0.00" rerouteNo="0" devices="tripinfo_74" vType="DEFAULT_VEHTYPE" speedFactor="0.94" vaporized=""/>
    <tripinfo id="75" depart="83.00" departLane="" departPos="0.00" departSpeed="14.66" departDelay="0.00" arrival="118.00" arrivalLane="" arrivalPos="100.00" arrivalSpeed="29.33" duration="35.00" routeLength="958.05" waitingTime="0.00" waitingCount="0" stopTime="0.00" timeLoss="0.00" rerouteNo="0" devices="tripinfo_75" vType="DEFAULT_VEHTYPE" speedFactor="1.06" vaporized=""/>
    <tripinfo id="72" depart="78.00" departLane="" departPos="0.00" departSpeed="11.58" departDelay="0.00" arrival="120.00" arrivalLane="" arrivalPos="257.55" arrivalSpeed="23.62" duration="42.00" routeLength="854.05" waitingTime="2.40" waitingCount="0" stopTime="0.00" timeLoss="8.53" rerouteNo="0" devices="tripinfo_72" vType="DEFAULT_VEHTYPE" speedFactor="1.02" vaporized=""/>
    <tripinfo id="52" depart="62.00" departLane="" departPos="0.00" departSpeed="11.87" departDelay="0.00" arrival="121.00" arrivalLane="" arrivalPos="143.59" arrivalSpeed="19.00" duration="59.00" routeLength="1084.30" waitingTime="0.00" waitingCount="0" stopTime="0.00" timeLoss="0.00" rerouteNo="0" devices="tripinfo_52" vType="DEFAULT_VEHTYPE" speedFactor="0.85" vaporized=""/>
    <tripinfo id="29" depart="32.00" departLane="" departPos="0.00" departSpeed="26.36" departDelay="0.00" arrival="123.00" arrivalLane="" arrivalPos="806.12" arrivalSpeed="21.08" duration="91.00" routeLength="2070.54" waitingTime="0.00" waitingCount="0" stopTime="0.00" timeLoss="0.17" rerouteNo="0" devices="tripinfo_29" vType="DEFAULT_VEHTYPE" speedFactor="0.95" vaporized=""/>
    <tripinfo id="38" depart="46.00" departLane="" departPos="0.00" departSpeed="27.03" departDelay="0.00" arrival="123.00" arrivalLane="" arrivalPos="325.99" arrivalSpeed="21.62" duration="77.00" routeLength="1770.21" waitingTime="0.00" waitingCount="0" stopTime="0.00" timeLoss="0.00" rerouteNo="0" devices="tripinfo_38" vType="DEFAULT_VEHTYPE" speedFactor="0.97" vaporized=""/>
    <tripinfo id="58" depart="70.00" departLane="" departPos="0.00" departSpeed="24.97" departDelay="0.00" arrival="124.00" arrivalLane="" arrivalPos="38.78" arrivalSpeed="12.49" duration="54.00" routeLength="1301.36" waitingTime="0.00" waitingCount="0" stopTime="0.00" timeLoss="0.00" rerouteNo="0" devices="tripinfo_58" vType="DEFAULT_VEHTYPE" speedFactor="0.90" vaporized=""/>
    <tripinfo id="43" depart="52.00" departLane="" departPos="0.00" departSpeed="26.59" departDelay="0.00" arrival="125.00" arrivalLane="" arrivalPos="806.12" arrivalSpeed="21.27" duration="73.00" routeLength="1290.02" waitingTime="0.00" waitingCount="0" stopTime="0.00" timeLoss="0.00" rerouteNo="0" devices="tripinfo_43" vType="DEFAULT_VEHTYPE" speedFactor="0.96" vaporized=""/>
    <tripinfo id="71" depart="78.00" departLane="" departPos="0.00" departSpeed="14.20" departDelay="0.00" arrival="127.00" arrivalLane="" arrivalPos="257.55" arrivalSpeed="28.39" duration="49.00" routeLength="1329.61" waitingTime="0.00" waitingCount="0" stopTime="0.00" timeLoss="0.00" rerouteNo="0" devices="tripinfo_71" vType="DEFAULT_VEHTYPE" speedFactor="1.02" vaporized=""/>
    <tripinfo id="55" depart="66.00" departLane="" departPos="0.00" departSpeed="15.22" departDelay="0.00" arrival="128.00" arrivalLane="" arrivalPos="806.12" arrivalSpeed="24.35" duration="62.00" routeLength="1363.89" waitingTime="0.00" waitingCount="0" stopTime="0.00" timeLoss="4.28" rerouteNo="0" devices="tripinfo_55" vType="DEFAULT_VEHTYPE" speedFactor="1.10" vaporized=""/>
    <tripinfo id="48" depart="59.00" departLane="" departPos="0.00" departSpeed="22.16" departDelay="0.00" arrival="129.00" arrivalLane="" arrivalPos="325.99" arrivalSpeed="22.16" duration="70.00" routeLength="1534.17" waitingTime="0.00" waitingCount="0" stopTime="0.00" timeLoss="0.00" rerouteNo="0" devices="tripinfo_48" vType="DEFAULT_VEHTYPE" speedFactor="1.00" vaporized=""/>
    <tripinfo id="60" depart="71.00" departLane="" departPos="0.00" departSpeed="14.22" departDelay="0.00" arrival="130.00" arrivalLane="" arrivalPos="325.99" arrivalSpeed="22.16" duration="59.00" routeLength="1300.17" waitingTime="0.00" waitingCount="0" stopTime="0.00" timeLoss="0.16" rerouteNo="0" devices="tripinfo_60" vType="DEFAULT_VEHTYPE" speedFactor="1.02" vaporized=""/>
    <tripinfo id="86" depart="92.00" departLane="" departPos="0.00" departSpeed="31.89" departDelay="0.00" arrival="131.00" arrivalLane="" arrivalPos="294.40" arrivalSpeed="31.88" duration="39.00" routeLength="1225.09" waitingTime="0.00" waitingCount="0" stopTime="0.00" timeLoss="0.00" rerouteNo="0" devices="tripinfo_86" vType="DEFAULT_VEHTYPE" speedFactor="1.15" vaporized=""/>
    <tripinfo id="53" depart="63.00" departLane="" departPos="0.00" departSpeed="32.47" departDelay="0.00" arrival="132.00" arrivalLane="" arrivalPos="325.99" arrivalSpeed="22.16" duration="69.00" routeLength="1674.93" waitingTime="0.97" waitingCount="0" stopTime="0.00" timeLoss="7.56" rerouteNo="0" devices="tripinfo_53" vType="DEFAULT_VEHTYPE" speedFactor="1.17" vaporized=""/>
    <tripinfo id="49" depart="59.00" departLane="" departPos="0.00" departSpeed="18.07" departDelay="0.00" arrival="134.00" arrivalLane="" arrivalPos="38.78" arrivalSpeed="12.51" duration="75.00" routeLength="983.26" waitingTime="0.00" waitingCount="0" stopTime="0.00" timeLoss="0.77" rerouteNo="0" devices="tripinfo_49" vType="DEFAULT_VEHTYPE" speedFactor="0.90" vaporized=""/>
    <tripinfo id="66" depart="75.00" departLane="" departPos="0.00" departSpeed="26.04" departDelay="0.00" arrival="136.00" arrivalLane="" arrivalPos="143.59" arrivalSpeed="20.83" duration="61.00" routeLength="1010.43" waitingTime="0.00" waitingCount="0" stopTime="0.00" timeLoss="0.00" rerouteNo="0" devices="tripinfo_66" vType="DEFAULT_VEHTYPE" speedFactor="0.94" vaporized=""/>
    <tripinfo id="64" depart="73.00" departLane="" departPos="0.00" departSpeed="28.22" departDelay="0.00" arrival="137.00" arrivalLane="" arrivalPos="325.99" arrivalSpeed="22.57" duration="64.00" routeLength="1146.34" waitingTime="0.00" waitingCount="0" stopTime="0.00" timeLoss="0.00" rerouteNo="0" devices="tripinfo_64" vType="DEFAULT_VEHTYPE" speedFactor="1.02" vaporized=""/>
    <tripinfo id="62" depart="72.00" departLane="" departPos="0.00" departSpeed="23.96" departDelay="0.00" arrival="138.00" arrivalLane="" arrivalPos="143.59" arrivalSpeed="20.83" duration="66.00" routeLength="1459.06" waitingTime="1.96" waitingCount="0" stopTime="0.00" timeLoss="8.85" rerouteNo="0" devices="tripinfo_62" vType="DEFAULT_VEHTYPE" speedFactor="1.08" vaporized=""/>
    <tripinfo id="104" depart="112.00" departLane="" departPos="0.00" departSpeed="26.89" departDelay="0.00" arrival="138.00" arrivalLane="" arrivalPos="71.22" arrivalSpeed="13.45" duration="26.00" routeLength="612.32" waitingTime="0.00" waitingCount="0" stopTime="0.00" timeLoss="0.00" rerouteNo="0" devices="tripinfo_104" vType="DEFAULT_VEHTYPE" speedFactor="0.97" vaporized=""/>
    <tripinfo id="96" depart="108.00" departLane="" departPos="0.00" departSpeed="15.15" departDelay="0.00" arrival="139.00" arrivalLane="" arrivalPos="294.40" arrivalSpeed="30.31" duration="31.00" routeLength="850.33" waitingTime="0.00" waitingCount="0" stopTime="0.00" timeLoss="0.00" rerouteNo="0" devices="tripinfo_96" vType="DEFAULT_VEHTYPE" speedFactor="1.09" vaporized=""/>
    <tripinfo id="56" depart="68.00" departLane="" departPos="0.00" departSpeed="22.29" departDelay="0.00" arrival="142.00" arrivalLane="" arrivalPos="38.78" arrivalSpeed="13.93" duration="74.00" routeLength="1325.01" waitingTime="0.00" waitingCount="0" stopTime="0.00" timeLoss="0.00" rerouteNo="0" devices="tripinfo_56" vType="DEFAULT_VEHTYPE" speedFactor="1.00" vaporized=""/>
    <tripinfo id="89" depart="97.00" departLane="" departPos="0.00" departSpeed="28.97" departDelay="0.00" arrival="143.00" arrivalLane="" arrivalPos="257.55" arrivalSpeed="28.96" duration="46.00" routeLength="1324.09" waitingTime="0.00" waitingCount="0" stopTime="0.00" timeLoss="0.00" rerouteNo="0" devices="tripinfo_89" vType="DEFAULT_VEHTYPE" speedFactor="1.04" vaporized=""/>
    <tripinfo id="68" depart="76.00" departLane="" departPos="0.00" departSpeed="10.99" departDelay="0.00" arrival="144.00" arrivalLane="" arrivalPos="325.99" arrivalSpeed="20.15" duration="68.00" routeLength="1300.17" waitingTime="0.32" waitingCount="0" stopTime="0.00" timeLoss="1.15" rerouteNo="0" devices="tripinfo_68" vType="DEFAULT_VEHTYPE" speedFactor="0.91" vaporized=""/>
    <tripinfo id="76" depart="85.00" departLane="" departPos="0.00" departSpeed="26.53" departDelay="0.00" arrival="145.00" arrivalLane="" arrivalPos="143.59" arrivalSpeed="21.22" duration="60.00" routeLength="1010.43" waitingTime="0.00" waitingCount="0" stopTime="0.00" timeLoss="0.00" rerouteNo="0" devices="tripinfo_76" vType="DEFAULT_VEHTYPE" speedFactor="0.96" vaporized=""/>
    <tripinfo id="46" depart="55.00" departLane="" departPos="0.00" departSpeed="23.18" departDelay="0.00" arrival="146.00" arrivalLane="" arrivalPos="257.55" arrivalSpeed="28.98" duration="91.00" routeLength="2030.30" waitingTime="0.00" waitingCount="0" stopTime="0.00" timeLoss="0.00" rerouteNo="0" devices="tripinfo_46" vType="DEFAULT_VEHTYPE" speedFactor="1.04" vaporized=""/>
    <tripinfo id="61" depart="72.00" departLane="" departPos="0.00" departSpeed="26.93" departDelay="0.00" arrival="146.00" arrivalLane="" arrivalPos="325.99" arrivalSpeed="21.54" duration="74.00" routeLength="1674.93" waitingTime="0.00" waitingCount="0" stopTime="0.00" timeLoss="0.00" rerouteNo="0" devices="tripinfo_61" vType="DEFAULT_VEHTYPE" speedFactor="0.97" vaporized=""/>