<?xml version="1.0" encoding="UTF-8"?>

<!-- generated on 2023-04-29 23:21:06 by Eclipse SUMO sumo Version 1.16.0
-->

<configuration xmlns:xsi="http://www.w3.org/2001/XMLSchema-instance" xsi:noNamespaceSchemaLocation="http://sumo.dlr.de/xsd/sumoConfiguration.xsd">

    <input>
        <net-file value="../configurations/maps/Braess_Homebrew_fixed1.net.xml"/>
        <route-files value="Trips_File_000.rou.xml"/>
        <additional-files value="../edgedata.add.xml"/>
    </input>

    <output>
        <output-prefix value="000/"/>
        <summary-output value="../summary_000.xml"/>
        <tripinfo-output value="../tripinfo_000.xml"/>
    </output>

    <time>
        <begin value="0"/>
    </time>

    <processing>
        <route-steps value="200"/>
        <no-internal-links value="False"/>
        <time-to-teleport value="300"/>
        <time-to-teleport.highways value="0"/>
        <eager-insert value="False"/>
    </processing>

    <report>
        <verbose value="true"/>
        <no-warnings value="False"/>
        <log value="../iteration_000.sumo.log"/>
        <no-step-log value="true"/>
    </report>

    <mesoscopic>
        <mesosim value="true"/>
        <meso-recheck value="0"/>
    </mesoscopic>

    <random_number>
        <random value="False"/>
    </random_number>

</configuration>
