<?xml version="1.0" encoding="UTF-8"?>

<!-- generated on 2023-04-28 14:58:15 by Eclipse SUMO sumo Version 1.16.0
<configuration xmlns:xsi="http://www.w3.org/2001/XMLSchema-instance" xsi:noNamespaceSchemaLocation="http://sumo.dlr.de/xsd/sumoConfiguration.xsd">

    <input>
        <net-file value="C:\Users\Local_Man\Desktop\Stolen%20Music\school%20stuff%20for%20college\Semester%2015%20(UH%20Graduate%20School)\COSC%206364%20Nikolaos\SUMO_Project\COSC6364_Project\configurations\maps\Random_English.net.xml"/>
        <route-files value="./configurations/Rounds/Random_English.net.xml-test_R-0/Mesoscopic_DUE/011/Trips_File_011.rou.xml"/>
    </input>

    <output>
        <summary-output value="./configurations/Rounds/Random_English.net.xml-test_R-0/Mesoscopic_DUE/011/summary.xml"/>
        <tripinfo-output value="./configurations/Rounds/Random_English.net.xml-test_R-0/Mesoscopic_DUE/011/trips.trips.xml"/>
        <statistic-output value="./configurations/Rounds/Random_English.net.xml-test_R-0/Mesoscopic_DUE/011/stats_output.xml"/>
    </output>

    <time>
        <begin value="0"/>
    </time>

    <report>
        <log value="./configurations/Rounds/Random_English.net.xml-test_R-0/Mesoscopic_DUE/011/log.sumo.log"/>
        <no-step-log value="true"/>
    </report>

    <gui_only>
        <quit-on-end value="true"/>
    </gui_only>

</configuration>
-->

<tripinfos xmlns:xsi="http://www.w3.org/2001/XMLSchema-instance" xsi:noNamespaceSchemaLocation="http://sumo.dlr.de/xsd/tripinfo_file.xsd">
    <tripinfo id="11" depart="9.00" departLane="-621_0" departPos="5.10" departSpeed="0.00" departDelay="0.00" arrival="49.00" arrivalLane="732_1" arrivalPos="137.52" arrivalSpeed="10.78" duration="40.00" routeLength="389.77" waitingTime="0.00" waitingCount="0" stopTime="0.00" timeLoss="5.75" rerouteNo="0" devices="tripinfo_11" vType="DEFAULT_VEHTYPE" speedFactor="0.86" vaporized=""/>
    <tripinfo id="20" depart="17.00" departLane="-2209_0" departPos="5.10" departSpeed="0.00" departDelay="0.00" arrival="61.00" arrivalLane="-1891_0" arrivalPos="195.19" arrivalSpeed="12.16" duration="44.00" routeLength="482.19" waitingTime="0.00" waitingCount="0" stopTime="0.00" timeLoss="5.63" rerouteNo="0" devices="tripinfo_20" vType="DEFAULT_VEHTYPE" speedFactor="0.94" vaporized=""/>
    <tripinfo id="45" depart="42.00" departLane="639_0" departPos="5.10" departSpeed="0.00" departDelay="0.00" arrival="77.00" arrivalLane="880_0" arrivalPos="200.29" arrivalSpeed="14.27" duration="35.00" routeLength="393.91" waitingTime="0.00" waitingCount="0" stopTime="0.00" timeLoss="6.88" rerouteNo="0" devices="tripinfo_45" vType="DEFAULT_VEHTYPE" speedFactor="1.04" vaporized=""/>
    <tripinfo id="49" depart="51.00" departLane="-3162_0" departPos="5.10" departSpeed="0.00" departDelay="0.00" arrival="82.00" arrivalLane="3166_0" arrivalPos="87.10" arrivalSpeed="11.39" duration="31.00" routeLength="304.92" waitingTime="0.00" waitingCount="0" stopTime="0.00" timeLoss="5.67" rerouteNo="0" devices="tripinfo_49" vType="DEFAULT_VEHTYPE" speedFactor="0.90" vaporized=""/>
    <tripinfo id="5" depart="1.00" departLane="-4257_0" departPos="5.10" departSpeed="0.00" departDelay="0.00" arrival="84.00" arrivalLane="-349_0" arrivalPos="141.23" arrivalSpeed="14.23" duration="83.00" routeLength="997.36" waitingTime="0.00" waitingCount="0" stopTime="0.00" timeLoss="14.61" rerouteNo="0" devices="tripinfo_5" vType="DEFAULT_VEHTYPE" speedFactor="1.08" vaporized=""/>
    <tripinfo id="16" depart="12.00" departLane="1494_0" departPos="5.10" departSpeed="0.00" departDelay="0.00" arrival="84.00" arrivalLane="639_0" arrivalPos="168.47" arrivalSpeed="13.22" duration="72.00" routeLength="799.64" waitingTime="0.00" waitingCount="0" stopTime="0.00" timeLoss="12.47" rerouteNo="0" devices="tripinfo_16" vType="DEFAULT_VEHTYPE" speedFactor="0.99" vaporized=""/>
    <tripinfo id="51" depart="52.00" departLane="1941_0" departPos="5.10" departSpeed="0.00" departDelay="0.00" arrival="86.00" arrivalLane="2185_0" arrivalPos="194.85" arrivalSpeed="10.86" duration="34.00" routeLength="332.69" waitingTime="0.00" waitingCount="0" stopTime="0.00" timeLoss="4.62" rerouteNo="0" devices="tripinfo_51" vType="DEFAULT_VEHTYPE" speedFactor="0.85" vaporized=""/>
    <tripinfo id="12" depart="9.00" departLane="338_0" departPos="5.10" departSpeed="0.00" departDelay="0.00" arrival="95.00" arrivalLane="-876_0" arrivalPos="101.06" arrivalSpeed="14.85" duration="86.00" routeLength="1121.91" waitingTime="0.00" waitingCount="0" stopTime="0.00" timeLoss="10.97" rerouteNo="0" devices="tripinfo_12" vType="DEFAULT_VEHTYPE" speedFactor="1.09" vaporized=""/>
    <tripinfo id="2" depart="0.00" departLane="-533_0" departPos="5.10" departSpeed="0.00" departDelay="0.00" arrival="98.00" arrivalLane="2421_0" arrivalPos="219.47" arrivalSpeed="14.26" duration="98.00" routeLength="1190.24" waitingTime="0.00" waitingCount="0" stopTime="0.00" timeLoss="14.15" rerouteNo="0" devices="tripinfo_2" vType="DEFAULT_VEHTYPE" speedFactor="1.06" vaporized=""/>
    <tripinfo id="68" depart="70.00" departLane="597_0" departPos="5.10" departSpeed="0.00" departDelay="0.00" arrival="107.00" arrivalLane="2289_0" arrivalPos="166.55" arrivalSpeed="12.58" duration="37.00" routeLength="380.25" waitingTime="0.00" waitingCount="0" stopTime="0.00" timeLoss="5.16" rerouteNo="0" devices="tripinfo_68" vType="DEFAULT_VEHTYPE" speedFactor="0.91" vaporized=""/>
    <tripinfo id="56" depart="58.00" departLane="-313_0" departPos="5.10" departSpeed="0.00" departDelay="0.00" arrival="111.00" arrivalLane="326_0" arrivalPos="111.07" arrivalSpeed="12.79" duration="53.00" routeLength="556.68" waitingTime="0.00" waitingCount="0" stopTime="0.00" timeLoss="9.85" rerouteNo="0" devices="tripinfo_56" vType="DEFAULT_VEHTYPE" speedFactor="1.00" vaporized=""/>
    <tripinfo id="8" depart="4.00" departLane="4469_0" departPos="5.10" departSpeed="0.00" departDelay="0.00" arrival="118.00" arrivalLane="-618_0" arrivalPos="129.97" arrivalSpeed="14.47" duration="114.00" routeLength="1340.91" waitingTime="0.00" waitingCount="0" stopTime="0.00" timeLoss="18.10" rerouteNo="0" devices="tripinfo_8" vType="DEFAULT_VEHTYPE" speedFactor="1.05" vaporized=""/>
    <tripinfo id="13" depart="10.00" departLane="-2756_0" departPos="5.10" departSpeed="0.00" departDelay="0.00" arrival="122.00" arrivalLane="2128_2" arrivalPos="148.18" arrivalSpeed="13.70" duration="112.00" routeLength="1287.56" waitingTime="0.00" waitingCount="0" stopTime="0.00" timeLoss="19.34" rerouteNo="0" devices="tripinfo_13" vType="DEFAULT_VEHTYPE" speedFactor="1.03" vaporized=""/>
    <tripinfo id="61" depart="63.00" departLane="4256_0" departPos="5.10" departSpeed="0.00" departDelay="0.00" arrival="132.00" arrivalLane="2876_1" arrivalPos="105.25" arrivalSpeed="13.00" duration="69.00" routeLength="762.68" waitingTime="0.00" waitingCount="0" stopTime="0.00" timeLoss="10.35" rerouteNo="0" devices="tripinfo_61" vType="DEFAULT_VEHTYPE" speedFactor="0.97" vaporized=""/>
    <tripinfo id="17" depart="13.00" departLane="1798_0" departPos="5.10" departSpeed="0.00" departDelay="0.00" arrival="136.00" arrivalLane="-2447_0" arrivalPos="137.51" arrivalSpeed="12.75" duration="123.00" routeLength="1301.78" waitingTime="0.00" waitingCount="0" stopTime="0.00" timeLoss="20.27" rerouteNo="0" devices="tripinfo_17" vType="DEFAULT_VEHTYPE" speedFactor="0.93" vaporized=""/>
    <tripinfo id="90" depart="93.00" departLane="-2412_0" departPos="5.10" departSpeed="0.00" departDelay="0.00" arrival="137.00" arrivalLane="-2439_0" arrivalPos="95.18" arrivalSpeed="12.78" duration="44.00" routeLength="482.74" waitingTime="0.00" waitingCount="0" stopTime="0.00" timeLoss="8.20" rerouteNo="0" devices="tripinfo_90" vType="DEFAULT_VEHTYPE" speedFactor="1.01" vaporized=""/>
    <tripinfo id="6" depart="4.00" departLane="-2291_0" departPos="5.10" departSpeed="0.00" departDelay="0.00" arrival="139.00" arrivalLane="330_1" arrivalPos="188.90" arrivalSpeed="13.25" duration="135.00" routeLength="1448.59" waitingTime="1.00" waitingCount="1" stopTime="0.00" timeLoss="31.40" rerouteNo="0" devices="tripinfo_6" vType="DEFAULT_VEHTYPE" speedFactor="1.03" vaporized=""/>
    <tripinfo id="111" depart="108.00" departLane="1941_0" departPos="5.10" departSpeed="0.00" departDelay="1.00" arrival="139.00" arrivalLane="2185_0" arrivalPos="194.85" arrivalSpeed="12.94" duration="31.00" routeLength="332.69" waitingTime="0.00" waitingCount="0" stopTime="0.00" timeLoss="4.80" rerouteNo="0" devices="tripinfo_111" vType="DEFAULT_VEHTYPE" speedFactor="0.96" vaporized=""/>
    <tripinfo id="31" depart="29.00" departLane="1011_0" departPos="5.10" departSpeed="0.00" departDelay="0.00" arrival="140.00" arrivalLane="-210_0" arrivalPos="104.02" arrivalSpeed="12.26" duration="111.00" routeLength="1193.07" waitingTime="0.00" waitingCount="0" stopTime="0.00" timeLoss="15.89" rerouteNo="0" devices="tripinfo_31" vType="DEFAULT_VEHTYPE" speedFactor="0.93" vaporized=""/>
    <tripinfo id="47" depart="46.00" departLane="-1431_0" departPos="5.10" departSpeed="0.00" departDelay="0.00" arrival="144.00" arrivalLane="313_0" arrivalPos="128.55" arrivalSpeed="14.61" duration="98.00" routeLength="1177.09" waitingTime="0.00" waitingCount="0" stopTime="0.00" timeLoss="19.17" rerouteNo="0" devices="tripinfo_47" vType="DEFAULT_VEHTYPE" speedFactor="1.09" vaporized=""/>
    <tripinfo id="32" depart="30.00" departLane="-505_0" departPos="5.10" departSpeed="0.00" departDelay="0.00" arrival="149.00" arrivalLane="1005_2" arrivalPos="110.46" arrivalSpeed="15.48" duration="119.00" routeLength="1552.82" waitingTime="0.00" waitingCount="0" stopTime="0.00" timeLoss="21.82" rerouteNo="0" devices="tripinfo_32" vType="DEFAULT_VEHTYPE" speedFactor="1.18" vaporized=""/>
    <tripinfo id="34" depart="31.00" departLane="-1057_0" departPos="5.10" departSpeed="0.00" departDelay="0.00" arrival="160.00" arrivalLane="840_0" arrivalPos="230.55" arrivalSpeed="12.69" duration="129.00" routeLength="1582.50" waitingTime="0.00" waitingCount="0" stopTime="0.00" timeLoss="15.61" rerouteNo="0" devices="tripinfo_34" vType="DEFAULT_VEHTYPE" speedFactor="1.01" vaporized=""/>
    <tripinfo id="39" depart="39.00" departLane="-686_0" departPos="5.10" departSpeed="0.00" departDelay="0.00" arrival="160.00" arrivalLane="1767_1" arrivalPos="203.37" arrivalSpeed="11.31" duration="121.00" routeLength="1340.50" waitingTime="4.00" waitingCount="1" stopTime="0.00" timeLoss="36.12" rerouteNo="0" devices="tripinfo_39" vType="DEFAULT_VEHTYPE" speedFactor="1.18" vaporized=""/>
    <tripinfo id="63" depart="65.00" departLane="-2285_0" departPos="5.10" departSpeed="0.00" departDelay="0.00" arrival="160.00" arrivalLane="326_0" arrivalPos="111.07" arrivalSpeed="14.53" duration="95.00" routeLength="1123.60" waitingTime="1.00" waitingCount="1" stopTime="0.00" timeLoss="20.50" rerouteNo="0" devices="tripinfo_63" vType="DEFAULT_VEHTYPE" speedFactor="1.12" vaporized=""/>
    <tripinfo id="23" depart="20.00" departLane="588_0" departPos="5.10" departSpeed="0.00" departDelay="0.00" arrival="162.00" arrivalLane="2724_0" arrivalPos="216.58" arrivalSpeed="12.92" duration="142.00" routeLength="1617.00" waitingTime="0.00" waitingCount="0" stopTime="0.00" timeLoss="24.59" rerouteNo="0" devices="tripinfo_23" vType="DEFAULT_VEHTYPE" speedFactor="1.01" vaporized=""/>
    <tripinfo id="10" depart="7.00" departLane="-1941_0" departPos="5.10" departSpeed="0.00" departDelay="0.00" arrival="164.00" arrivalLane="7_0" arrivalPos="182.56" arrivalSpeed="12.01" duration="157.00" routeLength="1580.14" waitingTime="5.00" waitingCount="1" stopTime="0.00" timeLoss="31.48" rerouteNo="0" devices="tripinfo_10" vType="DEFAULT_VEHTYPE" speedFactor="0.94" vaporized=""/>
    <tripinfo id="114" depart="112.00" departLane="1343_0" departPos="5.10" departSpeed="0.00" departDelay="0.00" arrival="164.00" arrivalLane="-1093_0" arrivalPos="135.09" arrivalSpeed="14.23" duration="52.00" routeLength="578.48" waitingTime="0.00" waitingCount="0" stopTime="0.00" timeLoss="11.74" rerouteNo="0" devices="tripinfo_114" vType="DEFAULT_VEHTYPE" speedFactor="1.10" vaporized=""/>
    <tripinfo id="22" depart="18.00" departLane="504_0" departPos="5.10" departSpeed="0.00" departDelay="0.00" arrival="168.00" arrivalLane="-848_1" arrivalPos="82.38" arrivalSpeed="13.57" duration="150.00" routeLength="1711.55" waitingTime="0.00" waitingCount="0" stopTime="0.00" timeLoss="25.45" rerouteNo="0" devices="tripinfo_22" vType="DEFAULT_VEHTYPE" speedFactor="1.02" vaporized=""/>
    <tripinfo id="28" depart="24.00" departLane="-621_0" departPos="5.10" departSpeed="0.00" departDelay="0.00" arrival="168.00" arrivalLane="1388_0" arrivalPos="140.80" arrivalSpeed="12.60" duration="144.00" routeLength="1640.22" waitingTime="0.00" waitingCount="0" stopTime="0.00" timeLoss="14.66" rerouteNo="0" devices="tripinfo_28" vType="DEFAULT_VEHTYPE" speedFactor="0.92" vaporized=""/>
    <tripinfo id="60" depart="61.00" departLane="2502_0" departPos="5.10" departSpeed="0.00" departDelay="0.00" arrival="169.00" arrivalLane="3897_0" arrivalPos="157.10" arrivalSpeed="14.13" duration="108.00" routeLength="1179.40" waitingTime="3.00" waitingCount="1" stopTime="0.00" timeLoss="21.20" rerouteNo="0" devices="tripinfo_60" vType="DEFAULT_VEHTYPE" speedFactor="1.02" vaporized=""/>
    <tripinfo id="78" depart="86.00" departLane="-2979_0" departPos="5.10" departSpeed="0.00" departDelay="0.00" arrival="169.00" arrivalLane="2963_0" arrivalPos="144.48" arrivalSpeed="13.55" duration="83.00" routeLength="858.13" waitingTime="3.00" waitingCount="1" stopTime="0.00" timeLoss="20.38" rerouteNo="0" devices="tripinfo_78" vType="DEFAULT_VEHTYPE" speedFactor="1.03" vaporized=""/>
    <tripinfo id="19" depart="13.00" departLane="-1029_0" departPos="5.10" departSpeed="0.00" departDelay="0.00" arrival="172.00" arrivalLane="1323_0" arrivalPos="214.96" arrivalSpeed="12.98" duration="159.00" routeLength="1758.73" waitingTime="0.00" waitingCount="0" stopTime="0.00" timeLoss="19.61" rerouteNo="0" devices="tripinfo_19" vType="DEFAULT_VEHTYPE" speedFactor="0.94" vaporized=""/>
    <tripinfo id="84" depart="91.00" departLane="-2732_0" departPos="5.10" departSpeed="0.00" departDelay="0.00" arrival="175.00" arrivalLane="-2166_2" arrivalPos="209.89" arrivalSpeed="13.64" duration="84.00" routeLength="974.15" waitingTime="0.00" waitingCount="0" stopTime="0.00" timeLoss="12.45" rerouteNo="0" devices="tripinfo_84" vType="DEFAULT_VEHTYPE" speedFactor="1.02" vaporized=""/>
    <tripinfo id="4" depart="1.00" departLane="2300_0" departPos="5.10" departSpeed="0.00" departDelay="0.00" arrival="177.00" arrivalLane="-679_0" arrivalPos="112.51" arrivalSpeed="12.96" duration="176.00" routeLength="1984.03" waitingTime="3.00" waitingCount="1" stopTime="0.00" timeLoss="29.68" rerouteNo="0" devices="tripinfo_4" vType="DEFAULT_VEHTYPE" speedFactor="1.01" vaporized=""/>
    <tripinfo id="104" depart="103.00" departLane="848_0" departPos="5.10" departSpeed="0.00" departDelay="0.00" arrival="177.00" arrivalLane="-1343_1" arrivalPos="119.37" arrivalSpeed="12.69" duration="74.00" routeLength="794.21" waitingTime="0.00" waitingCount="0" stopTime="0.00" timeLoss="11.44" rerouteNo="0" devices="tripinfo_104" vType="DEFAULT_VEHTYPE" speedFactor="0.97" vaporized=""/>
    <tripinfo id="18" depart="13.00" departLane="3603_0" departPos="5.10" departSpeed="0.00" departDelay="0.00" arrival="181.00" arrivalLane="-577_1" arrivalPos="184.87" arrivalSpeed="12.13" duration="168.00" routeLength="1734.59" waitingTime="0.00" waitingCount="0" stopTime="0.00" timeLoss="21.05" rerouteNo="0" devices="tripinfo_18" vType="DEFAULT_VEHTYPE" speedFactor="0.88" vaporized=""/>
    <tripinfo id="36" depart="36.00" departLane="-4255_0" departPos="5.10" departSpeed="0.00" departDelay="0.00" arrival="183.00" arrivalLane="-9_0" arrivalPos="189.44" arrivalSpeed="13.70" duration="147.00" routeLength="1712.76" waitingTime="0.00" waitingCount="0" stopTime="0.00" timeLoss="20.06" rerouteNo="0" devices="tripinfo_36" vType="DEFAULT_VEHTYPE" speedFactor="0.99" vaporized=""/>
    <tripinfo id="149" depart="140.00" departLane="1891_0" departPos="5.10" departSpeed="0.00" departDelay="0.00" arrival="184.00" arrivalLane="3145_0" arrivalPos="98.82" arrivalSpeed="13.54" duration="44.00" routeLength="515.61" waitingTime="0.00" waitingCount="0" stopTime="0.00" timeLoss="6.55" rerouteNo="0" devices="tripinfo_149" vType="DEFAULT_VEHTYPE" speedFactor="1.00" vaporized=""/>
    <tripinfo id="33" depart="31.00" departLane="15_0" departPos="5.10" departSpeed="0.00" departDelay="0.00" arrival="185.00" arrivalLane="-4257_0" arrivalPos="85.19" arrivalSpeed="15.73" duration="154.00" routeLength="2031.01" waitingTime="0.00" waitingCount="0" stopTime="0.00" timeLoss="25.36" rerouteNo="0" devices="tripinfo_33" vType="DEFAULT_VEHTYPE" speedFactor="1.15" vaporized=""/>
    <tripinfo id="50" depart="52.00" departLane="1033_0" departPos="5.10" departSpeed="0.00" departDelay="0.00" arrival="186.00" arrivalLane="3252_0" arrivalPos="156.98" arrivalSpeed="11.25" duration="134.00" routeLength="1328.20" waitingTime="0.00" waitingCount="0" stopTime="0.00" timeLoss="19.59" rerouteNo="0" devices="tripinfo_50" vType="DEFAULT_VEHTYPE" speedFactor="0.88" vaporized=""/>
    <tripinfo id="40" depart="39.00" departLane="-3155_0" departPos="5.10" departSpeed="0.00" departDelay="0.00" arrival="187.00" arrivalLane="1523_2" arrivalPos="145.77" arrivalSpeed="14.25" duration="148.00" routeLength="1862.90" waitingTime="0.00" waitingCount="0" stopTime="0.00" timeLoss="24.54" rerouteNo="0" devices="tripinfo_40" vType="DEFAULT_VEHTYPE" speedFactor="1.10" vaporized=""/>
    <tripinfo id="3" depart="0.00" departLane="-639_0" departPos="5.10" departSpeed="0.00" departDelay="0.00" arrival="188.00" arrivalLane="3095_0" arrivalPos="194.73" arrivalSpeed="12.15" duration="188.00" routeLength="2152.74" waitingTime="0.00" waitingCount="0" stopTime="0.00" timeLoss="20.09" rerouteNo="0" devices="tripinfo_3" vType="DEFAULT_VEHTYPE" speedFactor="0.94" vaporized=""/>
    <tripinfo id="9" depart="5.00" departLane="379_0" departPos="5.10" departSpeed="0.00" departDelay="0.00" arrival="188.00" arrivalLane="3761_0" arrivalPos="181.36" arrivalSpeed="11.70" duration="183.00" routeLength="2001.54" waitingTime="0.00" waitingCount="0" stopTime="0.00" timeLoss="17.36" rerouteNo="0" devices="tripinfo_9" vType="DEFAULT_VEHTYPE" speedFactor="0.89" vaporized=""/>
    <tripinfo id="21" depart="17.00" departLane="4257_0" departPos="5.10" departSpeed="0.00" departDelay="0.00" arrival="192.00" arrivalLane="2289_0" arrivalPos="166.55" arrivalSpeed="15.19" duration="175.00" routeLength="2139.80" waitingTime="0.00" waitingCount="0" stopTime="0.00" timeLoss="37.90" rerouteNo="0" devices="tripinfo_21" vType="DEFAULT_VEHTYPE" speedFactor="1.16" vaporized=""/>
    <tripinfo id="35" depart="34.00" departLane="-2453_0" departPos="5.10" departSpeed="0.00" departDelay="0.00" arrival="193.00" arrivalLane="-650_2" arrivalPos="184.52" arrivalSpeed="15.99" duration="159.00" routeLength="2122.04" waitingTime="0.00" waitingCount="0" stopTime="0.00" timeLoss="25.42" rerouteNo="0" devices="tripinfo_35" vType="DEFAULT_VEHTYPE" speedFactor="1.17" vaporized=""/>
    <tripinfo id="62" depart="64.00" departLane="-330_0" departPos="5.10" departSpeed="0.00" departDelay="0.00" arrival="194.00" arrivalLane="2173_2" arrivalPos="209.36" arrivalSpeed="14.96" duration="130.00" routeLength="1689.30" waitingTime="0.00" waitingCount="0" stopTime="0.00" timeLoss="15.19" rerouteNo="0" devices="tripinfo_62" vType="DEFAULT_VEHTYPE" speedFactor="1.08" vaporized=""/>
    <tripinfo id="87" depart="92.00" departLane="1345_0" departPos="5.10" departSpeed="0.00" departDelay="0.00" arrival="194.00" arrivalLane="-698_1" arrivalPos="113.62" arrivalSpeed="13.36" duration="102.00" routeLength="1148.57" waitingTime="0.00" waitingCount="0" stopTime="0.00" timeLoss="14.18" rerouteNo="0" devices="tripinfo_87" vType="DEFAULT_VEHTYPE" speedFactor="0.98" vaporized=""/>
    <tripinfo id="139" depart="131.00" departLane="-608_0" departPos="5.10" departSpeed="0.00" departDelay="0.00" arrival="194.00" arrivalLane="-2149_2" arrivalPos="118.16" arrivalSpeed="13.81" duration="63.00" routeLength="579.00" waitingTime="2.00" waitingCount="1" stopTime="0.00" timeLoss="19.24" rerouteNo="0" devices="tripinfo_139" vType="DEFAULT_VEHTYPE" speedFactor="1.02" vaporized=""/>
    <tripinfo id="91" depart="94.00" departLane="2447_0" departPos="5.10" departSpeed="0.00" departDelay="0.00" arrival="195.00" arrivalLane="-3497_0" arrivalPos="123.06" arrivalSpeed="13.34" duration="101.00" routeLength="1138.42" waitingTime="0.00" waitingCount="0" stopTime="0.00" timeLoss="16.84" rerouteNo="0" devices="tripinfo_91" vType="DEFAULT_VEHTYPE" speedFactor="1.02" vaporized=""/>
    <tripinfo id="105" depart="103.00" departLane="-2201_0" departPos="5.10" departSpeed="0.00" departDelay="0.00" arrival="196.00" arrivalLane="-1524_1" arrivalPos="113.03" arrivalSpeed="13.05" duration="93.00" routeLength="1000.44" waitingTime="0.00" waitingCount="0" stopTime="0.00" timeLoss="14.27" rerouteNo="0" devices="tripinfo_105" vType="DEFAULT_VEHTYPE" speedFactor="0.95" vaporized=""/>
    <tripinfo id="94" depart="96.00" departLane="325_0" departPos="5.10" departSpeed="0.00" departDelay="0.00" arrival="204.00" arrivalLane="674_2" arrivalPos="168.57" arrivalSpeed="10.95" duration="108.00" routeLength="942.39" waitingTime="5.00" waitingCount="1" stopTime="0.00" timeLoss="23.96" rerouteNo="0" devices="tripinfo_94" vType="DEFAULT_VEHTYPE" speedFactor="0.83" vaporized=""/>
    <tripinfo id="48" depart="50.00" departLane="-330_0" departPos="5.10" departSpeed="0.00" departDelay="0.00" arrival="206.00" arrivalLane="3801_0" arrivalPos="171.84" arrivalSpeed="13.79" duration="156.00" routeLength="1859.93" waitingTime="0.00" waitingCount="0" stopTime="0.00" timeLoss="19.62" rerouteNo="0" devices="tripinfo_48" vType="DEFAULT_VEHTYPE" speedFactor="1.00" vaporized=""/>
    <tripinfo id="83" depart="91.00" departLane="-523_0" departPos="5.10" departSpeed="0.00" departDelay="0.00" arrival="206.00" arrivalLane="3719_0" arrivalPos="136.31" arrivalSpeed="13.33" duration="115.00" routeLength="1328.60" waitingTime="0.00" waitingCount="0" stopTime="0.00" timeLoss="17.33" rerouteNo="0" devices="tripinfo_83" vType="DEFAULT_VEHTYPE" speedFactor="1.00" vaporized=""/>
    <tripinfo id="76" depart="84.00" departLane="-496_0" departPos="5.10" departSpeed="0.00" departDelay="0.00" arrival="208.00" arrivalLane="1535_0" arrivalPos="99.88" arrivalSpeed="11.98" duration="124.00" routeLength="1405.13" waitingTime="0.00" waitingCount="0" stopTime="0.00" timeLoss="17.07" rerouteNo="0" devices="tripinfo_76" vType="DEFAULT_VEHTYPE" speedFactor="0.96" vaporized=""/>
    <tripinfo id="118" depart="115.00" departLane="381_0" departPos="5.10" departSpeed="0.00" departDelay="0.00" arrival="208.00" arrivalLane="1027_0" arrivalPos="193.01" arrivalSpeed="15.56" duration="93.00" routeLength="1125.50" waitingTime="4.00" waitingCount="1" stopTime="0.00" timeLoss="22.54" rerouteNo="0" devices="tripinfo_118" vType="DEFAULT_VEHTYPE" speedFactor="1.18" vaporized=""/>
    <tripinfo id="24" depart="21.00" departLane="1429_0" departPos="5.10" departSpeed="0.00" departDelay="0.00" arrival="209.00" arrivalLane="-4049_0" arrivalPos="194.19" arrivalSpeed="12.65" duration="188.00" routeLength="2081.03" waitingTime="0.00" waitingCount="0" stopTime="0.00" timeLoss="30.13" rerouteNo="0" devices="tripinfo_24" vType="DEFAULT_VEHTYPE" speedFactor="0.97" vaporized=""/>
    <tripinfo id="38" depart="38.00" departLane="25_0" departPos="5.10" departSpeed="0.00" departDelay="0.00" arrival="209.00" arrivalLane="-4527_2" arrivalPos="165.92" arrivalSpeed="13.47" duration="171.00" routeLength="2021.65" waitingTime="0.00" waitingCount="0" stopTime="0.00" timeLoss="18.47" rerouteNo="0" devices="tripinfo_38" vType="DEFAULT_VEHTYPE" speedFactor="0.97" vaporized=""/>
    <tripinfo id="96" depart="97.00" departLane="-3779_0" departPos="5.10" departSpeed="0.00" departDelay="0.00" arrival="209.00" arrivalLane="-1517_2" arrivalPos="144.73" arrivalSpeed="14.17" duration="112.00" routeLength="1368.86" waitingTime="0.00" waitingCount="0" stopTime="0.00" timeLoss="19.97" rerouteNo="0" devices="tripinfo_96" vType="DEFAULT_VEHTYPE" speedFactor="1.09" vaporized=""/>
    <tripinfo id="160" depart="149.00" departLane="1391_0" departPos="5.10" departSpeed="0.00" departDelay="0.00" arrival="209.00" arrivalLane="-4256_0" arrivalPos="208.50" arrivalSpeed="12.04" duration="60.00" routeLength="631.75" waitingTime="0.00" waitingCount="0" stopTime="0.00" timeLoss="8.36" rerouteNo="0" devices="tripinfo_160" vType="DEFAULT_VEHTYPE" speedFactor="0.91" vaporized=""/>
    <tripinfo id="26" depart="21.00" departLane="2289_0" departPos="5.10" departSpeed="0.00" departDelay="0.00" arrival="212.00" arrivalLane="-332_0" arrivalPos="100.82" arrivalSpeed="10.45" duration="191.00" routeLength="1750.99" waitingTime="7.00" waitingCount="2" stopTime="0.00" timeLoss="35.44" rerouteNo="0" devices="tripinfo_26" vType="DEFAULT_VEHTYPE" speedFactor="0.83" vaporized=""/>
    <tripinfo id="37" depart="38.00" departLane="-1005_0" departPos="5.10" departSpeed="0.00" departDelay="0.00" arrival="213.00" arrivalLane="-1494_1" arrivalPos="199.02" arrivalSpeed="13.68" duration="175.00" routeLength="2075.34" waitingTime="0.00" waitingCount="0" stopTime="0.00" timeLoss="23.50" rerouteNo="0" devices="tripinfo_37" vType="DEFAULT_VEHTYPE" speedFactor="1.02" vaporized=""/>
    <tripinfo id="53" depart="54.00" departLane="3438_0" departPos="5.10" departSpeed="0.00" departDelay="0.00" arrival="213.00" arrivalLane="3772_0" arrivalPos="105.93" arrivalSpeed="15.98" duration="159.00" routeLength="2055.62" waitingTime="0.00" waitingCount="0" stopTime="0.00" timeLoss="29.79" rerouteNo="0" devices="tripinfo_53" vType="DEFAULT_VEHTYPE" speedFactor="1.17" vaporized=""/>
    <tripinfo id="15" depart="11.00" departLane="-336_0" departPos="5.10" departSpeed="0.00" departDelay="0.00" arrival="215.00" arrivalLane="-3095_1" arrivalPos="194.73" arrivalSpeed="15.07" duration="204.00" routeLength="2770.06" waitingTime="0.00" waitingCount="0" stopTime="0.00" timeLoss="24.56" rerouteNo="0" devices="tripinfo_15" vType="DEFAULT_VEHTYPE" speedFactor="1.12" vaporized=""/>
    <tripinfo id="42" depart="41.00" departLane="4255_0" departPos="5.10" departSpeed="0.00" departDelay="0.00" arrival="215.00" arrivalLane="-1415_0" arrivalPos="189.23" arrivalSpeed="14.14" duration="174.00" routeLength="1971.89" waitingTime="6.00" waitingCount="1" stopTime="0.00" timeLoss="35.39" rerouteNo="0" devices="tripinfo_42" vType="DEFAULT_VEHTYPE" speedFactor="1.03" vaporized=""/>
    <tripinfo id="122" depart="118.00" departLane="-3437_0" departPos="5.10" departSpeed="0.00" departDelay="0.00" arrival="219.00" arrivalLane="-123_0" arrivalPos="126.98" arrivalSpeed="11.84" duration="101.00" routeLength="1171.44" waitingTime="0.00" waitingCount="0" stopTime="0.00" timeLoss="11.04" rerouteNo="0" devices="tripinfo_122" vType="DEFAULT_VEHTYPE" speedFactor="0.94" vaporized=""/>
    <tripinfo id="70" depart="71.00" departLane="-3497_0" departPos="5.10" departSpeed="0.00" departDelay="0.00" arrival="222.00" arrivalLane="1774_0" arrivalPos="141.01" arrivalSpeed="13.20" duration="151.00" routeLength="1817.07" waitingTime="0.00" waitingCount="0" stopTime="0.00" timeLoss="22.15" rerouteNo="0" devices="tripinfo_70" vType="DEFAULT_VEHTYPE" speedFactor="1.04" vaporized=""/>
    <tripinfo id="185" depart="166.00" departLane="618_0" departPos="5.10" departSpeed="0.00" departDelay="0.00" arrival="225.00" arrivalLane="579_0" arrivalPos="154.31" arrivalSpeed="14.44" duration="59.00" routeLength="606.24" waitingTime="0.00" waitingCount="0" stopTime="0.00" timeLoss="17.10" rerouteNo="0" devices="tripinfo_185" vType="DEFAULT_VEHTYPE" speedFactor="1.08" vaporized=""/>
    <tripinfo id="30" depart="29.00" departLane="1027_0" departPos="5.10" departSpeed="0.00" departDelay="0.00" arrival="227.00" arrivalLane="1950_0" arrivalPos="136.99" arrivalSpeed="15.54" duration="198.00" routeLength="2535.02" waitingTime="4.00" waitingCount="1" stopTime="0.00" timeLoss="33.69" rerouteNo="0" devices="tripinfo_30" vType="DEFAULT_VEHTYPE" speedFactor="1.13" vaporized=""/>
    <tripinfo id="58" depart="58.00" departLane="1201_0" departPos="5.10" departSpeed="0.00" departDelay="0.00" arrival="228.00" arrivalLane="-379_0" arrivalPos="141.20" arrivalSpeed="11.30" duration="170.00" routeLength="1731.56" waitingTime="1.00" waitingCount="1" stopTime="0.00" timeLoss="26.62" rerouteNo="0" devices="tripinfo_58" vType="DEFAULT_VEHTYPE" speedFactor="0.90" vaporized=""/>
    <tripinfo id="100" depart="100.00" departLane="-3119_0" departPos="5.10" departSpeed="0.00" departDelay="0.00" arrival="228.00" arrivalLane="837_1" arrivalPos="98.32" arrivalSpeed="14.79" duration="128.00" routeLength="1666.11" waitingTime="0.00" waitingCount="0" stopTime="0.00" timeLoss="18.81" rerouteNo="0" devices="tripinfo_100" vType="DEFAULT_VEHTYPE" speedFactor="1.12" vaporized=""/>
    <tripinfo id="146" depart="136.00" departLane="313_0" departPos="5.10" departSpeed="0.00" departDelay="1.00" arrival="228.00" arrivalLane="-625_2" arrivalPos="118.51" arrivalSpeed="10.11" duration="92.00" routeLength="737.55" waitingTime="0.00" waitingCount="0" stopTime="0.00" timeLoss="15.81" rerouteNo="0" devices="tripinfo_146" vType="DEFAULT_VEHTYPE" speedFactor="0.73" vaporized=""/>
    <tripinfo id="174" depart="159.00" departLane="-614_0" departPos="5.10" departSpeed="0.00" departDelay="0.00" arrival="228.00" arrivalLane="2158_0" arrivalPos="201.26" arrivalSpeed="11.11" duration="69.00" routeLength="696.88" waitingTime="0.00" waitingCount="0" stopTime="0.00" timeLoss="9.81" rerouteNo="0" devices="tripinfo_174" vType="DEFAULT_VEHTYPE" speedFactor="0.89" vaporized=""/>