<?xml version="1.0" encoding="UTF-8"?>

<!-- generated on 2023-04-30 11:54:52 by Eclipse SUMO sumo Version 1.16.0
<configuration xmlns:xsi="http://www.w3.org/2001/XMLSchema-instance" xsi:noNamespaceSchemaLocation="http://sumo.dlr.de/xsd/sumoConfiguration.xsd">

    <input>
        <net-file value="C:\Users\Local_Man\Desktop\Stolen%20Music\school%20stuff%20for%20college\Semester%2015%20(UH%20Graduate%20School)\COSC%206364%20Nikolaos\SUMO_Project\COSC6364_Project\configurations\maps\4corners_neighborhoods.net.xml"/>
        <route-files value="./configurations/Rounds/4corners_neighborhoods.net.xml-small_test-0/Macroscopic_DUE/000/Trips_File_000.rou.xml"/>
    </input>

    <output>
        <summary-output value="./configurations/Rounds/4corners_neighborhoods.net.xml-small_test-0/Macroscopic_DUE/000/summary.xml"/>
        <tripinfo-output value="./configurations/Rounds/4corners_neighborhoods.net.xml-small_test-0/Macroscopic_DUE/000/trips.trips.xml"/>
        <statistic-output value="./configurations/Rounds/4corners_neighborhoods.net.xml-small_test-0/Macroscopic_DUE/000/stats_output.xml"/>
    </output>

    <time>
        <begin value="0"/>
    </time>

    <report>
        <log value="./configurations/Rounds/4corners_neighborhoods.net.xml-small_test-0/Macroscopic_DUE/000/log.sumo.log"/>
        <no-step-log value="true"/>
    </report>

    <gui_only>
        <quit-on-end value="true"/>
    </gui_only>

</configuration>
-->

<tripinfos xmlns:xsi="http://www.w3.org/2001/XMLSchema-instance" xsi:noNamespaceSchemaLocation="http://sumo.dlr.de/xsd/tripinfo_file.xsd">
    <tripinfo id="24" depart="18.00" departLane="318908683#0_0" departPos="5.10" departSpeed="12.42" departDelay="0.00" arrival="83.00" arrivalLane="422688976#1_0" arrivalPos="294.40" arrivalSpeed="23.97" duration="65.00" routeLength="940.85" waitingTime="13.00" waitingCount="1" stopTime="0.00" timeLoss="23.84" rerouteNo="0" devices="tripinfo_24" vType="DEFAULT_VEHTYPE" speedFactor="0.89" vaporized=""/>
    <tripinfo id="42" depart="27.00" departLane="318908683#0_0" departPos="5.10" departSpeed="14.56" departDelay="0.00" arrival="90.00" arrivalLane="422688976#1_1" arrivalPos="294.40" arrivalSpeed="28.47" duration="63.00" routeLength="940.85" waitingTime="5.00" waitingCount="1" stopTime="0.00" timeLoss="27.48" rerouteNo="0" devices="tripinfo_42" vType="DEFAULT_VEHTYPE" speedFactor="1.05" vaporized=""/>
    <tripinfo id="13" depart="8.00" departLane="422688973_0" departPos="5.10" departSpeed="0.00" departDelay="0.00" arrival="91.00" arrivalLane="-597602753#1_0" arrivalPos="143.59" arrivalSpeed="22.58" duration="83.00" routeLength="1114.81" waitingTime="0.00" waitingCount="0" stopTime="0.00" timeLoss="19.17" rerouteNo="0" devices="tripinfo_13" vType="DEFAULT_VEHTYPE" speedFactor="1.04" vaporized=""/>
    <tripinfo id="18" depart="12.00" departLane="597602753#0_0" departPos="5.10" departSpeed="21.61" departDelay="0.00" arrival="91.00" arrivalLane="-597602756#0_0" arrivalPos="325.99" arrivalSpeed="22.50" duration="79.00" routeLength="1646.04" waitingTime="0.00" waitingCount="0" stopTime="0.00" timeLoss="5.58" rerouteNo="0" devices="tripinfo_18" vType="DEFAULT_VEHTYPE" speedFactor="1.03" vaporized=""/>
    <tripinfo id="16" depart="11.00" departLane="597602756#0_0" departPos="5.10" departSpeed="22.45" departDelay="0.00" arrival="94.00" arrivalLane="260998164#0_0" arrivalPos="257.55" arrivalSpeed="27.11" duration="83.00" routeLength="1239.91" waitingTime="0.00" waitingCount="0" stopTime="0.00" timeLoss="10.24" rerouteNo="0" devices="tripinfo_16" vType="DEFAULT_VEHTYPE" speedFactor="1.01" vaporized=""/>
    <tripinfo id="4" depart="2.00" departLane="422685671#2_0" departPos="5.10" departSpeed="29.94" departDelay="0.00" arrival="95.00" arrivalLane="918280984_0" arrivalPos="38.78" arrivalSpeed="14.29" duration="93.00" routeLength="1069.78" waitingTime="39.00" waitingCount="1" stopTime="0.00" timeLoss="52.72" rerouteNo="0" devices="tripinfo_4" vType="DEFAULT_VEHTYPE" speedFactor="1.08" vaporized=""/>
    <tripinfo id="3" depart="1.00" departLane="597602756#0_0" departPos="5.10" departSpeed="24.06" departDelay="0.00" arrival="97.00" arrivalLane="-597602753#1_0" arrivalPos="143.59" arrivalSpeed="23.91" duration="96.00" routeLength="1638.96" waitingTime="9.00" waitingCount="1" stopTime="0.00" timeLoss="26.32" rerouteNo="0" devices="tripinfo_3" vType="DEFAULT_VEHTYPE" speedFactor="1.08" vaporized=""/>
    <tripinfo id="21" depart="14.00" departLane="318908683#0_0" departPos="5.10" departSpeed="14.01" departDelay="0.00" arrival="98.00" arrivalLane="918280984_0" arrivalPos="38.78" arrivalSpeed="13.81" duration="84.00" routeLength="693.58" waitingTime="36.00" waitingCount="2" stopTime="0.00" timeLoss="52.84" rerouteNo="0" devices="tripinfo_21" vType="DEFAULT_VEHTYPE" speedFactor="1.01" vaporized=""/>
    <tripinfo id="11" depart="7.00" departLane="-260998164#3_0" departPos="5.10" departSpeed="25.64" departDelay="0.00" arrival="100.00" arrivalLane="15374898#0-AddedOffRampEdge_1" arrivalPos="100.00" arrivalSpeed="25.47" duration="93.00" routeLength="1332.80" waitingTime="29.00" waitingCount="1" stopTime="0.00" timeLoss="40.83" rerouteNo="0" devices="tripinfo_11" vType="DEFAULT_VEHTYPE" speedFactor="0.92" vaporized=""/>
    <tripinfo id="53" depart="35.00" departLane="318908683#0_0" departPos="5.10" departSpeed="12.60" departDelay="0.00" arrival="100.00" arrivalLane="918280984_0" arrivalPos="38.78" arrivalSpeed="11.82" duration="65.00" routeLength="693.58" waitingTime="14.00" waitingCount="2" stopTime="0.00" timeLoss="30.82" rerouteNo="0" devices="tripinfo_53" vType="DEFAULT_VEHTYPE" speedFactor="0.91" vaporized=""/>
    <tripinfo id="14" depart="8.00" departLane="-260998164#3_0" departPos="5.10" departSpeed="23.25" departDelay="0.00" arrival="102.00" arrivalLane="15374898#0-AddedOffRampEdge_1" arrivalPos="100.00" arrivalSpeed="24.46" duration="94.00" routeLength="1332.80" waitingTime="28.00" waitingCount="1" stopTime="0.00" timeLoss="40.47" rerouteNo="0" devices="tripinfo_14" vType="DEFAULT_VEHTYPE" speedFactor="0.90" vaporized=""/>
    <tripinfo id="19" depart="14.00" departLane="-260998164#3_0" departPos="5.10" departSpeed="24.71" departDelay="0.00" arrival="105.00" arrivalLane="-318908683#1_0" arrivalPos="71.22" arrivalSpeed="11.19" duration="91.00" routeLength="955.07" waitingTime="40.00" waitingCount="1" stopTime="0.00" timeLoss="47.83" rerouteNo="0" devices="tripinfo_19" vType="DEFAULT_VEHTYPE" speedFactor="0.89" vaporized=""/>
    <tripinfo id="10" depart="7.00" departLane="105681660#12_0" departPos="5.10" departSpeed="24.95" departDelay="0.00" arrival="106.00" arrivalLane="-597602756#0_0" arrivalPos="325.99" arrivalSpeed="24.24" duration="99.00" routeLength="1877.95" waitingTime="0.00" waitingCount="0" stopTime="0.00" timeLoss="20.66" rerouteNo="0" devices="tripinfo_10" vType="DEFAULT_VEHTYPE" speedFactor="1.12" vaporized=""/>
    <tripinfo id="2" depart="0.00" departLane="918280985_0" departPos="5.10" departSpeed="13.55" departDelay="0.00" arrival="114.00" arrivalLane="-597602753#1_0" arrivalPos="143.59" arrivalSpeed="21.34" duration="114.00" routeLength="1123.56" waitingTime="31.00" waitingCount="1" stopTime="0.00" timeLoss="45.22" rerouteNo="0" devices="tripinfo_2" vType="DEFAULT_VEHTYPE" speedFactor="0.98" vaporized=""/>
    <tripinfo id="26" depart="19.00" departLane="422685671#2_1" departPos="5.10" departSpeed="27.64" departDelay="0.00" arrival="115.00" arrivalLane="260998164#0_0" arrivalPos="257.55" arrivalSpeed="26.79" duration="96.00" routeLength="1329.43" waitingTime="37.00" waitingCount="1" stopTime="0.00" timeLoss="47.15" rerouteNo="0" devices="tripinfo_26" vType="DEFAULT_VEHTYPE" speedFactor="0.99" vaporized=""/>
    <tripinfo id="58" depart="48.00" departLane="597602753#0_0" departPos="5.10" departSpeed="24.84" departDelay="0.00" arrival="115.00" arrivalLane="-105681660#20_0" arrivalPos="806.12" arrivalSpeed="24.22" duration="67.00" routeLength="1387.70" waitingTime="0.00" waitingCount="0" stopTime="0.00" timeLoss="9.21" rerouteNo="0" devices="tripinfo_58" vType="DEFAULT_VEHTYPE" speedFactor="1.12" vaporized=""/>
    <tripinfo id="23" depart="15.00" departLane="422685671#2_0" departPos="5.10" departSpeed="28.67" departDelay="0.00" arrival="116.00" arrivalLane="260998164#0_0" arrivalPos="257.55" arrivalSpeed="28.06" duration="101.00" routeLength="1329.43" waitingTime="41.00" waitingCount="1" stopTime="0.00" timeLoss="54.34" rerouteNo="0" devices="tripinfo_23" vType="DEFAULT_VEHTYPE" speedFactor="1.03" vaporized=""/>
    <tripinfo id="29" depart="20.00" departLane="422688973_0" departPos="5.10" departSpeed="15.75" departDelay="0.00" arrival="120.00" arrivalLane="15374898#0-AddedOffRampEdge_0" arrivalPos="100.00" arrivalSpeed="27.91" duration="100.00" routeLength="1006.54" waitingTime="41.00" waitingCount="1" stopTime="0.00" timeLoss="63.19" rerouteNo="0" devices="tripinfo_29" vType="DEFAULT_VEHTYPE" speedFactor="1.02" vaporized=""/>
    <tripinfo id="41" depart="26.00" departLane="422688973_2" departPos="5.10" departSpeed="0.24" departDelay="0.00" arrival="124.00" arrivalLane="-318908683#1_0" arrivalPos="71.22" arrivalSpeed="15.93" duration="98.00" routeLength="684.23" waitingTime="43.00" waitingCount="2" stopTime="0.00" timeLoss="73.96" rerouteNo="0" devices="tripinfo_41" vType="DEFAULT_VEHTYPE" speedFactor="1.17" vaporized=""/>
    <tripinfo id="45" depart="31.00" departLane="422688973_2" departPos="5.10" departSpeed="0.24" departDelay="0.00" arrival="124.00" arrivalLane="15374898#0-AddedOffRampEdge_0" arrivalPos="100.00" arrivalSpeed="26.48" duration="93.00" routeLength="1006.54" waitingTime="26.00" waitingCount="1" stopTime="0.00" timeLoss="53.96" rerouteNo="0" devices="tripinfo_45" vType="DEFAULT_VEHTYPE" speedFactor="0.96" vaporized=""/>
    <tripinfo id="76" depart="72.00" departLane="422688973_0" departPos="5.10" departSpeed="11.49" departDelay="0.00" arrival="127.00" arrivalLane="15374898#0-AddedOffRampEdge_0" arrivalPos="100.00" arrivalSpeed="31.15" duration="55.00" routeLength="1006.54" waitingTime="0.00" waitingCount="0" stopTime="0.00" timeLoss="22.24" rerouteNo="0" devices="tripinfo_76" vType="DEFAULT_VEHTYPE" speedFactor="1.14" vaporized=""/>
    <tripinfo id="38" depart="25.00" departLane="597602753#0_0" departPos="5.10" departSpeed="23.64" departDelay="0.00" arrival="128.00" arrivalLane="-597602756#0_0" arrivalPos="325.99" arrivalSpeed="22.40" duration="103.00" routeLength="1646.04" waitingTime="14.00" waitingCount="1" stopTime="0.00" timeLoss="32.45" rerouteNo="0" devices="tripinfo_38" vType="DEFAULT_VEHTYPE" speedFactor="1.06" vaporized=""/>
    <tripinfo id="7" depart="2.00" departLane="105681660#12_0" departPos="5.10" departSpeed="23.24" departDelay="0.00" arrival="130.00" arrivalLane="260998164#0_0" arrivalPos="257.55" arrivalSpeed="28.53" duration="128.00" routeLength="2169.41" waitingTime="3.00" waitingCount="1" stopTime="0.00" timeLoss="26.44" rerouteNo="0" devices="tripinfo_7" vType="DEFAULT_VEHTYPE" speedFactor="1.05" vaporized=""/>
    <tripinfo id="50" depart="33.00" departLane="318908683#0_0" departPos="5.10" departSpeed="13.86" departDelay="0.00" arrival="130.00" arrivalLane="-597602753#1_0" arrivalPos="143.59" arrivalSpeed="21.92" duration="97.00" routeLength="1208.14" waitingTime="15.00" waitingCount="2" stopTime="0.00" timeLoss="40.19" rerouteNo="0" devices="tripinfo_50" vType="DEFAULT_VEHTYPE" speedFactor="1.00" vaporized=""/>
    <tripinfo id="20" depart="14.00" departLane="918280985_0" departPos="5.10" departSpeed="12.12" departDelay="0.00" arrival="134.00" arrivalLane="-105681660#20_0" arrivalPos="806.12" arrivalSpeed="18.16" duration="120.00" routeLength="1360.98" waitingTime="20.00" waitingCount="1" stopTime="0.00" timeLoss="32.43" rerouteNo="0" devices="tripinfo_20" vType="DEFAULT_VEHTYPE" speedFactor="0.87" vaporized=""/>
    <tripinfo id="77" depart="74.00" departLane="105681660#12_0" departPos="5.10" departSpeed="21.51" departDelay="0.00" arrival="147.00" arrivalLane="-597602753#1_0" arrivalPos="143.59" arrivalSpeed="21.49" duration="73.00" routeLength="1380.56" waitingTime="0.00" waitingCount="0" stopTime="0.00" timeLoss="7.61" rerouteNo="0" devices="tripinfo_77" vType="DEFAULT_VEHTYPE" speedFactor="0.97" vaporized=""/>
    <tripinfo id="5" depart="2.00" departLane="918280985_0" departPos="5.10" departSpeed="13.03" departDelay="0.00" arrival="150.00" arrivalLane="-597602756#0_0" arrivalPos="325.99" arrivalSpeed="19.72" duration="148.00" routeLength="1890.39" waitingTime="31.00" waitingCount="1" stopTime="0.00" timeLoss="56.78" rerouteNo="0" devices="tripinfo_5" vType="DEFAULT_VEHTYPE" speedFactor="0.94" vaporized=""/>
    <tripinfo id="8" depart="3.00" departLane="105681660#12_0" departPos="5.10" departSpeed="21.02" departDelay="0.00" arrival="151.00" arrivalLane="422688976#1_1" arrivalPos="294.40" arrivalSpeed="27.12" duration="148.00" routeLength="2020.13" waitingTime="33.00" waitingCount="2" stopTime="0.00" timeLoss="63.56" rerouteNo="0" devices="tripinfo_8" vType="DEFAULT_VEHTYPE" speedFactor="1.02" vaporized=""/>
    <tripinfo id="15" depart="11.00" departLane="597602753#0_0" departPos="5.10" departSpeed="24.06" departDelay="0.00" arrival="151.00" arrivalLane="422688976#1_0" arrivalPos="294.40" arrivalSpeed="29.33" duration="140.00" routeLength="1788.22" waitingTime="49.00" waitingCount="1" stopTime="0.00" timeLoss="69.88" rerouteNo="0" devices="tripinfo_15" vType="DEFAULT_VEHTYPE" speedFactor="1.08" vaporized=""/>
    <tripinfo id="27" depart="19.00" departLane="597602753#0_0" departPos="5.10" departSpeed="21.52" departDelay="0.00" arrival="154.00" arrivalLane="422688976#1_0" arrivalPos="294.40" arrivalSpeed="26.85" duration="135.00" routeLength="1788.22" waitingTime="18.00" waitingCount="2" stopTime="0.00" timeLoss="56.95" rerouteNo="0" devices="tripinfo_27" vType="DEFAULT_VEHTYPE" speedFactor="0.97" vaporized=""/>
    <tripinfo id="39" depart="25.00" departLane="-260998164#3_0" departPos="5.10" departSpeed="28.36" departDelay="0.00" arrival="154.00" arrivalLane="422688976#1_1" arrivalPos="294.40" arrivalSpeed="28.32" duration="129.00" routeLength="1712.42" waitingTime="36.00" waitingCount="2" stopTime="0.00" timeLoss="66.31" rerouteNo="0" devices="tripinfo_39" vType="DEFAULT_VEHTYPE" speedFactor="1.02" vaporized=""/>
    <tripinfo id="43" depart="51.00" departLane="918280985_0" departPos="5.10" departSpeed="2.47" departDelay="24.00" arrival="154.00" arrivalLane="-597602753#1_0" arrivalPos="143.59" arrivalSpeed="21.23" duration="103.00" routeLength="1123.56" waitingTime="15.00" waitingCount="2" stopTime="0.00" timeLoss="35.94" rerouteNo="0" devices="tripinfo_43" vType="DEFAULT_VEHTYPE" speedFactor="1.00" vaporized=""/>
    <tripinfo id="44" depart="30.00" departLane="597602753#0_0" departPos="5.10" departSpeed="24.46" departDelay="0.00" arrival="156.00" arrivalLane="260998164#0_0" arrivalPos="257.55" arrivalSpeed="30.57" duration="126.00" routeLength="1937.50" waitingTime="10.00" waitingCount="1" stopTime="0.00" timeLoss="40.37" rerouteNo="0" devices="tripinfo_44" vType="DEFAULT_VEHTYPE" speedFactor="1.10" vaporized=""/>
    <tripinfo id="9" depart="4.00" departLane="-260998164#3_0" departPos="5.10" departSpeed="30.30" departDelay="0.00" arrival="157.00" arrivalLane="-597602753#1_0" arrivalPos="143.59" arrivalSpeed="23.75" duration="153.00" routeLength="1979.71" waitingTime="51.00" waitingCount="2" stopTime="0.00" timeLoss="77.26" rerouteNo="0" devices="tripinfo_9" vType="DEFAULT_VEHTYPE" speedFactor="1.09" vaporized=""/>
    <tripinfo id="12" depart="9.00" departLane="-260998164#3_0" departPos="5.10" departSpeed="21.63" departDelay="1.00" arrival="157.00" arrivalLane="422688976#1_1" arrivalPos="294.40" arrivalSpeed="25.17" duration="148.00" routeLength="1712.42" waitingTime="55.00" waitingCount="2" stopTime="0.00" timeLoss="80.63" rerouteNo="0" devices="tripinfo_12" vType="DEFAULT_VEHTYPE" speedFactor="0.93" vaporized=""/>
    <tripinfo id="63" depart="59.00" departLane="597602753#0_0" departPos="5.10" departSpeed="22.60" departDelay="0.00" arrival="157.00" arrivalLane="-597602756#0_0" arrivalPos="325.99" arrivalSpeed="22.54" duration="98.00" routeLength="1646.04" waitingTime="9.00" waitingCount="1" stopTime="0.00" timeLoss="23.00" rerouteNo="0" devices="tripinfo_63" vType="DEFAULT_VEHTYPE" speedFactor="1.02" vaporized=""/>
    <tripinfo id="35" depart="24.00" departLane="597602756#0_0" departPos="5.10" departSpeed="23.68" departDelay="0.00" arrival="159.00" arrivalLane="-597602753#1_0" arrivalPos="143.59" arrivalSpeed="23.09" duration="135.00" routeLength="1638.96" waitingTime="44.00" waitingCount="2" stopTime="0.00" timeLoss="64.98" rerouteNo="0" devices="tripinfo_35" vType="DEFAULT_VEHTYPE" speedFactor="1.07" vaporized=""/>
    <tripinfo id="6" depart="2.00" departLane="-260998164#3_0" departPos="5.10" departSpeed="33.35" departDelay="0.00" arrival="161.00" arrivalLane="918280984_0" arrivalPos="38.78" arrivalSpeed="16.15" duration="159.00" routeLength="1465.15" waitingTime="86.00" waitingCount="3" stopTime="0.00" timeLoss="111.39" rerouteNo="0" devices="tripinfo_6" vType="DEFAULT_VEHTYPE" speedFactor="1.20" vaporized=""/>
    <tripinfo id="52" depart="35.00" departLane="-260998164#3_0" departPos="5.10" departSpeed="26.66" departDelay="0.00" arrival="164.00" arrivalLane="918280984_0" arrivalPos="38.78" arrivalSpeed="12.06" duration="129.00" routeLength="1465.15" waitingTime="41.00" waitingCount="3" stopTime="0.00" timeLoss="69.52" rerouteNo="0" devices="tripinfo_52" vType="DEFAULT_VEHTYPE" speedFactor="0.96" vaporized=""/>
    <tripinfo id="25" depart="20.00" departLane="105681660#12_0" departPos="5.10" departSpeed="23.79" departDelay="1.00" arrival="165.00" arrivalLane="918280984_0" arrivalPos="38.78" arrivalSpeed="14.45" duration="145.00" routeLength="1772.86" waitingTime="33.00" waitingCount="3" stopTime="0.00" timeLoss="73.23" rerouteNo="0" devices="tripinfo_25" vType="DEFAULT_VEHTYPE" speedFactor="1.12" vaporized=""/>
    <tripinfo id="95" depart="94.00" departLane="318908683#0_0" departPos="5.10" departSpeed="8.48" departDelay="0.00" arrival="167.00" arrivalLane="260998164#0_0" arrivalPos="257.55" arrivalSpeed="27.76" duration="73.00" routeLength="939.98" waitingTime="22.00" waitingCount="1" stopTime="0.00" timeLoss="35.65" rerouteNo="0" devices="tripinfo_95" vType="DEFAULT_VEHTYPE" speedFactor="1.02" vaporized=""/>
    <tripinfo id="40" depart="25.00" departLane="422685671#2_2" departPos="5.10" departSpeed="24.36" departDelay="0.00" arrival="168.00" arrivalLane="918280984_0" arrivalPos="38.78" arrivalSpeed="11.72" duration="143.00" routeLength="1069.78" waitingTime="68.00" waitingCount="3" stopTime="0.00" timeLoss="93.09" rerouteNo="0" devices="tripinfo_40" vType="DEFAULT_VEHTYPE" speedFactor="0.88" vaporized=""/>
    <tripinfo id="85" depart="80.00" departLane="918280985_0" departPos="5.10" departSpeed="10.50" departDelay="0.00" arrival="168.00" arrivalLane="15374898#0-AddedOffRampEdge_0" arrivalPos="100.00" arrivalSpeed="23.42" duration="88.00" routeLength="996.81" waitingTime="23.00" waitingCount="1" stopTime="0.00" timeLoss="42.25" rerouteNo="0" devices="tripinfo_85" vType="DEFAULT_VEHTYPE" speedFactor="0.87" vaporized=""/>
    <tripinfo id="57" depart="44.00" departLane="597602753#0_0" departPos="5.10" departSpeed="23.46" departDelay="0.00" arrival="170.00" arrivalLane="918280984_0" arrivalPos="38.78" arrivalSpeed="13.85" duration="126.00" routeLength="1540.95" waitingTime="19.00" waitingCount="2" stopTime="0.00" timeLoss="60.01" rerouteNo="0" devices="tripinfo_57" vType="DEFAULT_VEHTYPE" speedFactor="1.06" vaporized=""/>
    <tripinfo id="49" depart="32.00" departLane="105681660#12_0" departPos="5.10" departSpeed="22.74" departDelay="0.00" arrival="171.00" arrivalLane="918280984_0" arrivalPos="38.78" arrivalSpeed="13.39" duration="139.00" routeLength="1772.86" waitingTime="26.00" waitingCount="3" stopTime="0.00" timeLoss="60.88" rerouteNo="0" devices="tripinfo_49" vType="DEFAULT_VEHTYPE" speedFactor="1.02" vaporized=""/>
    <tripinfo id="94" depart="93.00" departLane="105681660#12_0" departPos="5.10" departSpeed="22.94" departDelay="0.00" arrival="173.00" arrivalLane="-597602753#1_0" arrivalPos="143.59" arrivalSpeed="22.57" duration="80.00" routeLength="1380.56" waitingTime="9.00" waitingCount="1" stopTime="0.00" timeLoss="18.27" rerouteNo="0" devices="tripinfo_94" vType="DEFAULT_VEHTYPE" speedFactor="1.03" vaporized=""/>
    <tripinfo id="111" depart="119.00" departLane="918280985_0" departPos="5.10" departSpeed="1.71" departDelay="10.00" arrival="173.00" arrivalLane="15374898#0-AddedOffRampEdge_0" arrivalPos="100.00" arrivalSpeed="30.22" duration="54.00" routeLength="996.81" waitingTime="0.00" waitingCount="0" stopTime="0.00" timeLoss="18.90" rerouteNo="0" devices="tripinfo_111" vType="DEFAULT_VEHTYPE" speedFactor="1.13" vaporized=""/>
    <tripinfo id="48" depart="32.00" departLane="422685671#2_0" departPos="5.10" departSpeed="27.70" departDelay="0.00" arrival="178.00" arrivalLane="-597602756#0_0" arrivalPos="325.99" arrivalSpeed="22.10" duration="146.00" routeLength="1778.05" waitingTime="40.00" waitingCount="1" stopTime="0.00" timeLoss="66.59" rerouteNo="0" devices="tripinfo_48" vType="DEFAULT_VEHTYPE" speedFactor="1.00" vaporized=""/>
    <tripinfo id="56" depart="54.00" departLane="918280985_0" departPos="5.10" departSpeed="5.63" departDelay="12.00" arrival="178.00" arrivalLane="-597602753#1_0" arrivalPos="143.59" arrivalSpeed="19.97" duration="124.00" routeLength="1123.56" waitingTime="28.00" waitingCount="2" stopTime="0.00" timeLoss="51.62" rerouteNo="0" devices="tripinfo_56" vType="DEFAULT_VEHTYPE" speedFactor="0.93" vaporized=""/>
    <tripinfo id="46" depart="31.00" departLane="422685671#2_0" departPos="5.10" departSpeed="24.97" departDelay="0.00" arrival="182.00" arrivalLane="-105681660#20_0" arrivalPos="806.12" arrivalSpeed="19.21" duration="151.00" routeLength="1813.05" waitingTime="41.00" waitingCount="1" stopTime="0.00" timeLoss="62.39" rerouteNo="0" devices="tripinfo_46" vType="DEFAULT_VEHTYPE" speedFactor="0.90" vaporized=""/>
    <tripinfo id="59" depart="50.00" departLane="422685671#2_0" departPos="5.10" departSpeed="28.68" departDelay="0.00" arrival="184.00" arrivalLane="-597602756#0_0" arrivalPos="325.99" arrivalSpeed="21.67" duration="134.00" routeLength="1778.05" waitingTime="29.00" waitingCount="1" stopTime="0.00" timeLoss="57.99" rerouteNo="0" devices="tripinfo_59" vType="DEFAULT_VEHTYPE" speedFactor="1.03" vaporized=""/>
    <tripinfo id="68" depart="64.00" departLane="918280985_0" departPos="5.10" departSpeed="13.09" departDelay="0.00" arrival="185.00" arrivalLane="-597602753#1_0" arrivalPos="143.59" arrivalSpeed="20.36" duration="121.00" routeLength="1123.56" waitingTime="36.00" waitingCount="1" stopTime="0.00" timeLoss="49.71" rerouteNo="0" devices="tripinfo_68" vType="DEFAULT_VEHTYPE" speedFactor="0.94" vaporized=""/>
    <tripinfo id="75" depart="71.00" departLane="422688973_1" departPos="5.10" departSpeed="10.42" departDelay="0.00" arrival="186.00" arrivalLane="-105681660#20_0" arrivalPos="806.12" arrivalSpeed="24.09" duration="115.00" routeLength="1352.23" waitingTime="21.00" waitingCount="2" stopTime="0.00" timeLoss="45.96" rerouteNo="0" devices="tripinfo_75" vType="DEFAULT_VEHTYPE" speedFactor="1.10" vaporized=""/>
    <tripinfo id="79" depart="75.00" departLane="422688973_1" departPos="5.10" departSpeed="12.05" departDelay="0.00" arrival="188.00" arrivalLane="-105681660#20_0" arrivalPos="806.12" arrivalSpeed="22.68" duration="113.00" routeLength="1352.23" waitingTime="17.00" waitingCount="2" stopTime="0.00" timeLoss="43.11" rerouteNo="0" devices="tripinfo_79" vType="DEFAULT_VEHTYPE" speedFactor="1.08" vaporized=""/>
    <tripinfo id="30" depart="20.00" departLane="918280985_0" departPos="5.10" departSpeed="10.50" departDelay="0.00" arrival="190.00" arrivalLane="260998164#0_0" arrivalPos="257.55" arrivalSpeed="25.37" duration="170.00" routeLength="1460.33" waitingTime="88.00" waitingCount="2" stopTime="0.00" timeLoss="110.12" rerouteNo="0" devices="tripinfo_30" vType="DEFAULT_VEHTYPE" speedFactor="0.94" vaporized=""/>
    <tripinfo id="55" depart="41.00" departLane="422685671#2_0" departPos="5.10" departSpeed="28.39" departDelay="0.00" arrival="191.00" arrivalLane="-597602753#1_0" arrivalPos="143.59" arrivalSpeed="22.28" duration="150.00" routeLength="1584.34" waitingTime="48.00" waitingCount="2" stopTime="0.00" timeLoss="82.00" rerouteNo="0" devices="tripinfo_55" vType="DEFAULT_VEHTYPE" speedFactor="1.02" vaporized=""/>
    <tripinfo id="31" depart="21.00" departLane="918280985_0" departPos="5.10" departSpeed="5.88" departDelay="0.00" arrival="192.00" arrivalLane="260998164#0_0" arrivalPos="257.55" arrivalSpeed="27.83" duration="171.00" routeLength="1460.33" waitingTime="86.00" waitingCount="2" stopTime="0.00" timeLoss="115.90" rerouteNo="0" devices="tripinfo_31" vType="DEFAULT_VEHTYPE" speedFactor="1.03" vaporized=""/>
    <tripinfo id="118" depart="118.00" departLane="422688973_1" departPos="5.10" departSpeed="13.62" departDelay="0.00" arrival="194.00" arrivalLane="15374898#0-AddedOffRampEdge_0" arrivalPos="100.00" arrivalSpeed="24.70" duration="76.00" routeLength="1006.54" waitingTime="14.00" waitingCount="1" stopTime="0.00" timeLoss="35.32" rerouteNo="0" devices="tripinfo_118" vType="DEFAULT_VEHTYPE" speedFactor="0.92" vaporized=""/>
    <tripinfo id="80" depart="75.00" departLane="318908683#0_0" departPos="5.10" departSpeed="14.90" departDelay="0.00" arrival="195.00" arrivalLane="-597602753#1_0" arrivalPos="143.59" arrivalSpeed="23.76" duration="120.00" routeLength="1208.14" waitingTime="37.00" waitingCount="1" stopTime="0.00" timeLoss="67.34" rerouteNo="0" devices="tripinfo_80" vType="DEFAULT_VEHTYPE" speedFactor="1.07" vaporized=""/>
    <tripinfo id="72" depart="69.00" departLane="318908683#0_0" departPos="5.10" departSpeed="14.68" departDelay="0.00" arrival="196.00" arrivalLane="-597602756#0_0" arrivalPos="325.99" arrivalSpeed="22.89" duration="127.00" routeLength="1401.85" waitingTime="40.00" waitingCount="1" stopTime="0.00" timeLoss="64.31" rerouteNo="0" devices="tripinfo_72" vType="DEFAULT_VEHTYPE" speedFactor="1.06" vaporized=""/>
    <tripinfo id="51" depart="34.00" departLane="422685671#2_0" departPos="5.10" departSpeed="27.42" departDelay="0.00" arrival="202.00" arrivalLane="-105681660#20_0" arrivalPos="806.12" arrivalSpeed="21.61" duration="168.00" routeLength="1813.05" waitingTime="52.00" waitingCount="2" stopTime="0.00" timeLoss="85.88" rerouteNo="0" devices="tripinfo_51" vType="DEFAULT_VEHTYPE" speedFactor="0.99" vaporized=""/>
    <tripinfo id="110" depart="107.00" departLane="318908683#0_0" departPos="5.10" departSpeed="4.73" departDelay="0.00" arrival="202.00" arrivalLane="-597602756#0_0" arrivalPos="325.99" arrivalSpeed="24.33" duration="95.00" routeLength="1401.85" waitingTime="12.00" waitingCount="1" stopTime="0.00" timeLoss="36.10" rerouteNo="0" devices="tripinfo_110" vType="DEFAULT_VEHTYPE" speedFactor="1.11" vaporized=""/>
    <tripinfo id="101" depart="99.00" departLane="918280985_0" departPos="5.10" departSpeed="2.73" departDelay="1.00" arrival="204.00" arrivalLane="-597602753#1_0" arrivalPos="143.59" arrivalSpeed="22.20" duration="105.00" routeLength="1123.56" waitingTime="19.00" waitingCount="2" stopTime="0.00" timeLoss="40.71" rerouteNo="0" devices="tripinfo_101" vType="DEFAULT_VEHTYPE" speedFactor="1.03" vaporized=""/>
    <tripinfo id="36" depart="45.00" departLane="918280985_0" departPos="5.10" departSpeed="0.16" departDelay="21.00" arrival="205.00" arrivalLane="260998164#0_0" arrivalPos="257.55" arrivalSpeed="21.24" duration="160.00" routeLength="1460.33" waitingTime="66.00" waitingCount="1" stopTime="0.00" timeLoss="86.01" rerouteNo="0" devices="tripinfo_36" vType="DEFAULT_VEHTYPE" speedFactor="0.77" vaporized=""/>
    <tripinfo id="37" depart="49.00" departLane="918280985_0" departPos="5.10" departSpeed="3.82" departDelay="25.00" arrival="206.00" arrivalLane="260998164#0_0" arrivalPos="257.55" arrivalSpeed="23.75" duration="157.00" routeLength="1460.33" waitingTime="65.00" waitingCount="1" stopTime="0.00" timeLoss="94.04" rerouteNo="0" devices="tripinfo_37" vType="DEFAULT_VEHTYPE" speedFactor="0.90" vaporized=""/>
    <tripinfo id="33" depart="21.00" departLane="422688973_1" departPos="5.10" departSpeed="15.75" departDelay="0.00" arrival="208.00" arrivalLane="260998164#0_0" arrivalPos="257.55" arrivalSpeed="22.74" duration="187.00" routeLength="1470.06" waitingTime="96.00" waitingCount="2" stopTime="0.00" timeLoss="121.33" rerouteNo="0" devices="tripinfo_33" vType="DEFAULT_VEHTYPE" speedFactor="0.83" vaporized=""/>
    <tripinfo id="109" depart="116.00" departLane="918280985_0" departPos="5.10" departSpeed="1.31" departDelay="9.00" arrival="208.00" arrivalLane="-597602753#1_0" arrivalPos="143.59" arrivalSpeed="22.31" duration="92.00" routeLength="1123.56" waitingTime="8.00" waitingCount="1" stopTime="0.00" timeLoss="25.56" rerouteNo="0" devices="tripinfo_109" vType="DEFAULT_VEHTYPE" speedFactor="1.01" vaporized=""/>
    <tripinfo id="47" depart="32.00" departLane="422688973_2" departPos="5.10" departSpeed="15.75" departDelay="0.00" arrival="209.00" arrivalLane="260998164#0_0" arrivalPos="257.55" arrivalSpeed="24.12" duration="177.00" routeLength="1470.06" waitingTime="86.00" waitingCount="2" stopTime="0.00" timeLoss="128.61" rerouteNo="0" devices="tripinfo_47" vType="DEFAULT_VEHTYPE" speedFactor="1.12" vaporized=""/>
    <tripinfo id="62" depart="57.00" departLane="422688973_0" departPos="5.10" departSpeed="11.16" departDelay="0.00" arrival="211.00" arrivalLane="260998164#0_0" arrivalPos="257.55" arrivalSpeed="24.73" duration="154.00" routeLength="1470.06" waitingTime="62.00" waitingCount="2" stopTime="0.00" timeLoss="92.55" rerouteNo="0" devices="tripinfo_62" vType="DEFAULT_VEHTYPE" speedFactor="0.90" vaporized=""/>