<?xml version="1.0" encoding="UTF-8"?>

<!-- generated on 2023-04-29 22:17:57 by Eclipse SUMO sumo Version 1.16.0
<configuration xmlns:xsi="http://www.w3.org/2001/XMLSchema-instance" xsi:noNamespaceSchemaLocation="http://sumo.dlr.de/xsd/sumoConfiguration.xsd">

    <input>
        <net-file value="C:\Users\Local_Man\Desktop\Stolen%20Music\school%20stuff%20for%20college\Semester%2015%20(UH%20Graduate%20School)\COSC%206364%20Nikolaos\SUMO_Project\COSC6364_Project\configurations\maps\4corners_neighborhoods.net.xml"/>
        <route-files value="./configurations/Rounds/4corners_neighborhoods.net.xml-test-4/Macroscopic_DUE/010/Trips_File_010.rou.xml"/>
    </input>

    <output>
        <summary-output value="./configurations/Rounds/4corners_neighborhoods.net.xml-test-4/Macroscopic_DUE/010/summary.xml"/>
        <tripinfo-output value="./configurations/Rounds/4corners_neighborhoods.net.xml-test-4/Macroscopic_DUE/010/trips.trips.xml"/>
        <statistic-output value="./configurations/Rounds/4corners_neighborhoods.net.xml-test-4/Macroscopic_DUE/010/stats_output.xml"/>
    </output>

    <time>
        <begin value="0"/>
    </time>

    <report>
        <log value="./configurations/Rounds/4corners_neighborhoods.net.xml-test-4/Macroscopic_DUE/010/log.sumo.log"/>
        <no-step-log value="true"/>
    </report>

    <gui_only>
        <quit-on-end value="true"/>
    </gui_only>

</configuration>
-->

<tripinfos xmlns:xsi="http://www.w3.org/2001/XMLSchema-instance" xsi:noNamespaceSchemaLocation="http://sumo.dlr.de/xsd/tripinfo_file.xsd">
    <tripinfo id="4" depart="3.00" departLane="597602753#0_0" departPos="5.10" departSpeed="23.24" departDelay="0.00" arrival="71.00" arrivalLane="-105681660#20_0" arrivalPos="806.12" arrivalSpeed="22.66" duration="68.00" routeLength="1387.70" waitingTime="0.00" waitingCount="0" stopTime="0.00" timeLoss="6.70" rerouteNo="0" devices="tripinfo_4" vType="DEFAULT_VEHTYPE" speedFactor="1.05" vaporized=""/>
    <tripinfo id="3" depart="2.00" departLane="918280985_0" departPos="5.10" departSpeed="15.04" departDelay="0.00" arrival="84.00" arrivalLane="15374898#0-AddedOffRampEdge_0" arrivalPos="100.00" arrivalSpeed="29.12" duration="82.00" routeLength="996.81" waitingTime="30.00" waitingCount="1" stopTime="0.00" timeLoss="45.18" rerouteNo="0" devices="tripinfo_3" vType="DEFAULT_VEHTYPE" speedFactor="1.08" vaporized=""/>
    <tripinfo id="5" depart="3.00" departLane="422688973_0" departPos="5.10" departSpeed="0.00" departDelay="0.00" arrival="84.00" arrivalLane="-597602753#1_0" arrivalPos="143.59" arrivalSpeed="26.60" duration="81.00" routeLength="1114.81" waitingTime="5.00" waitingCount="1" stopTime="0.00" timeLoss="25.69" rerouteNo="0" devices="tripinfo_5" vType="DEFAULT_VEHTYPE" speedFactor="1.20" vaporized=""/>
    <tripinfo id="9" depart="8.00" departLane="918280985_0" departPos="5.10" departSpeed="9.65" departDelay="0.00" arrival="93.00" arrivalLane="15374898#0-AddedOffRampEdge_0" arrivalPos="100.00" arrivalSpeed="24.84" duration="85.00" routeLength="996.81" waitingTime="26.00" waitingCount="1" stopTime="0.00" timeLoss="42.02" rerouteNo="0" devices="tripinfo_9" vType="DEFAULT_VEHTYPE" speedFactor="0.92" vaporized=""/>
    <tripinfo id="2" depart="0.00" departLane="597602756#0_0" departPos="5.10" departSpeed="21.67" departDelay="0.00" arrival="96.00" arrivalLane="918280984_0" arrivalPos="38.78" arrivalSpeed="13.14" duration="96.00" routeLength="1737.87" waitingTime="0.00" waitingCount="0" stopTime="0.00" timeLoss="14.75" rerouteNo="0" devices="tripinfo_2" vType="DEFAULT_VEHTYPE" speedFactor="0.98" vaporized=""/>
    <tripinfo id="27" depart="30.00" departLane="318908683#0_0" departPos="5.10" departSpeed="13.45" departDelay="0.00" arrival="102.00" arrivalLane="-597602753#1_0" arrivalPos="143.59" arrivalSpeed="20.84" duration="72.00" routeLength="1208.14" waitingTime="0.00" waitingCount="0" stopTime="0.00" timeLoss="13.47" rerouteNo="0" devices="tripinfo_27" vType="DEFAULT_VEHTYPE" speedFactor="0.97" vaporized=""/>
    <tripinfo id="39" depart="48.00" departLane="918280985_0" departPos="5.10" departSpeed="10.62" departDelay="0.00" arrival="102.00" arrivalLane="15374898#0-AddedOffRampEdge_0" arrivalPos="100.00" arrivalSpeed="23.10" duration="54.00" routeLength="996.81" waitingTime="0.00" waitingCount="0" stopTime="0.00" timeLoss="9.01" rerouteNo="0" devices="tripinfo_39" vType="DEFAULT_VEHTYPE" speedFactor="0.88" vaporized=""/>
    <tripinfo id="14" depart="12.00" departLane="-260998164#3_0" departPos="5.10" departSpeed="31.19" departDelay="0.00" arrival="112.00" arrivalLane="-318908683#1_0" arrivalPos="71.22" arrivalSpeed="14.47" duration="100.00" routeLength="955.07" waitingTime="56.00" waitingCount="1" stopTime="0.00" timeLoss="65.32" rerouteNo="0" devices="tripinfo_14" vType="DEFAULT_VEHTYPE" speedFactor="1.12" vaporized=""/>
    <tripinfo id="50" depart="60.00" departLane="-260998164#3_0" departPos="5.10" departSpeed="27.72" departDelay="0.00" arrival="112.00" arrivalLane="15374898#0-AddedOffRampEdge_0" arrivalPos="100.00" arrivalSpeed="26.91" duration="52.00" routeLength="1332.80" waitingTime="0.00" waitingCount="0" stopTime="0.00" timeLoss="3.34" rerouteNo="0" devices="tripinfo_50" vType="DEFAULT_VEHTYPE" speedFactor="1.00" vaporized=""/>
    <tripinfo id="28" depart="30.00" departLane="-260998164#3_0" departPos="5.10" departSpeed="27.64" departDelay="0.00" arrival="114.00" arrivalLane="-318908683#1_0" arrivalPos="71.22" arrivalSpeed="13.00" duration="84.00" routeLength="955.07" waitingTime="37.00" waitingCount="1" stopTime="0.00" timeLoss="44.90" rerouteNo="0" devices="tripinfo_28" vType="DEFAULT_VEHTYPE" speedFactor="0.99" vaporized=""/>
    <tripinfo id="13" depart="12.00" departLane="422685671#2_0" departPos="5.10" departSpeed="25.75" departDelay="0.00" arrival="115.00" arrivalLane="-105681660#20_0" arrivalPos="806.12" arrivalSpeed="19.32" duration="103.00" routeLength="1813.05" waitingTime="0.00" waitingCount="0" stopTime="0.00" timeLoss="16.08" rerouteNo="0" devices="tripinfo_13" vType="DEFAULT_VEHTYPE" speedFactor="0.93" vaporized=""/>
    <tripinfo id="18" depart="17.00" departLane="597602756#0_0" departPos="5.10" departSpeed="22.86" departDelay="0.00" arrival="116.00" arrivalLane="-318908683#1_0" arrivalPos="71.22" arrivalSpeed="13.19" duration="99.00" routeLength="1382.88" waitingTime="9.00" waitingCount="1" stopTime="0.00" timeLoss="25.30" rerouteNo="0" devices="tripinfo_18" vType="DEFAULT_VEHTYPE" speedFactor="1.03" vaporized=""/>
    <tripinfo id="24" depart="23.00" departLane="422688973_1" departPos="5.10" departSpeed="15.75" departDelay="0.00" arrival="116.00" arrivalLane="-597602753#1_0" arrivalPos="143.59" arrivalSpeed="18.96" duration="93.00" routeLength="1114.81" waitingTime="8.00" waitingCount="1" stopTime="0.00" timeLoss="19.65" rerouteNo="0" devices="tripinfo_24" vType="DEFAULT_VEHTYPE" speedFactor="0.89" vaporized=""/>
    <tripinfo id="54" depart="64.00" departLane="-260998164#3_0" departPos="5.10" departSpeed="26.33" departDelay="0.00" arrival="116.00" arrivalLane="15374898#0-AddedOffRampEdge_0" arrivalPos="100.00" arrivalSpeed="25.73" duration="52.00" routeLength="1332.80" waitingTime="0.00" waitingCount="0" stopTime="0.00" timeLoss="1.13" rerouteNo="0" devices="tripinfo_54" vType="DEFAULT_VEHTYPE" speedFactor="0.95" vaporized=""/>
    <tripinfo id="15" depart="13.00" departLane="105681660#12_0" departPos="5.10" departSpeed="20.80" departDelay="0.00" arrival="119.00" arrivalLane="-597602756#0_0" arrivalPos="325.99" arrivalSpeed="20.11" duration="106.00" routeLength="1877.95" waitingTime="0.00" waitingCount="0" stopTime="0.00" timeLoss="13.13" rerouteNo="0" devices="tripinfo_15" vType="DEFAULT_VEHTYPE" speedFactor="0.94" vaporized=""/>
    <tripinfo id="17" depart="16.00" departLane="918280985_0" departPos="5.10" departSpeed="10.50" departDelay="0.00" arrival="126.00" arrivalLane="-105681660#20_0" arrivalPos="806.12" arrivalSpeed="21.29" duration="110.00" routeLength="1360.98" waitingTime="20.00" waitingCount="1" stopTime="0.00" timeLoss="34.69" rerouteNo="0" devices="tripinfo_17" vType="DEFAULT_VEHTYPE" speedFactor="1.01" vaporized=""/>
    <tripinfo id="7" depart="7.00" departLane="918280985_0" departPos="5.10" departSpeed="13.03" departDelay="0.00" arrival="131.00" arrivalLane="-318908683#1_0" arrivalPos="71.22" arrivalSpeed="12.31" duration="124.00" routeLength="674.50" waitingTime="76.00" waitingCount="2" stopTime="0.00" timeLoss="91.75" rerouteNo="0" devices="tripinfo_7" vType="DEFAULT_VEHTYPE" speedFactor="0.94" vaporized=""/>
    <tripinfo id="49" depart="60.00" departLane="597602753#0_0" departPos="5.10" departSpeed="19.78" departDelay="1.00" arrival="132.00" arrivalLane="918280984_0" arrivalPos="38.78" arrivalSpeed="14.59" duration="72.00" routeLength="1061.00" waitingTime="0.00" waitingCount="0" stopTime="0.00" timeLoss="7.08" rerouteNo="0" devices="tripinfo_49" vType="DEFAULT_VEHTYPE" speedFactor="1.12" vaporized=""/>
    <tripinfo id="20" depart="19.00" departLane="422688973_0" departPos="5.10" departSpeed="15.75" departDelay="0.00" arrival="133.00" arrivalLane="-318908683#1_0" arrivalPos="71.22" arrivalSpeed="12.99" duration="114.00" routeLength="684.23" waitingTime="66.00" waitingCount="2" stopTime="0.00" timeLoss="85.90" rerouteNo="0" devices="tripinfo_20" vType="DEFAULT_VEHTYPE" speedFactor="1.01" vaporized=""/>
    <tripinfo id="36" depart="44.00" departLane="105681660#12_0" departPos="5.10" departSpeed="17.12" departDelay="0.00" arrival="133.00" arrivalLane="-597602753#1_0" arrivalPos="143.59" arrivalSpeed="16.92" duration="89.00" routeLength="1380.56" waitingTime="0.00" waitingCount="0" stopTime="0.00" timeLoss="6.26" rerouteNo="0" devices="tripinfo_36" vType="DEFAULT_VEHTYPE" speedFactor="0.77" vaporized=""/>
    <tripinfo id="42" depart="52.00" departLane="597602756#0_0" departPos="5.10" departSpeed="24.46" departDelay="0.00" arrival="133.00" arrivalLane="260998164#0_0" arrivalPos="257.55" arrivalSpeed="30.24" duration="81.00" routeLength="1239.91" waitingTime="2.00" waitingCount="1" stopTime="0.00" timeLoss="15.03" rerouteNo="0" devices="tripinfo_42" vType="DEFAULT_VEHTYPE" speedFactor="1.10" vaporized=""/>
    <tripinfo id="23" depart="21.00" departLane="918280985_0" departPos="5.10" departSpeed="7.50" departDelay="0.00" arrival="134.00" arrivalLane="-597602753#1_0" arrivalPos="143.59" arrivalSpeed="17.21" duration="113.00" routeLength="1123.56" waitingTime="22.00" waitingCount="2" stopTime="0.00" timeLoss="53.50" rerouteNo="0" devices="tripinfo_23" vType="DEFAULT_VEHTYPE" speedFactor="1.13" vaporized=""/>
    <tripinfo id="35" depart="43.00" departLane="422688973_1" departPos="5.10" departSpeed="13.62" departDelay="0.00" arrival="135.00" arrivalLane="-318908683#1_0" arrivalPos="71.22" arrivalSpeed="13.19" duration="92.00" routeLength="684.23" waitingTime="42.00" waitingCount="2" stopTime="0.00" timeLoss="64.39" rerouteNo="0" devices="tripinfo_35" vType="DEFAULT_VEHTYPE" speedFactor="1.04" vaporized=""/>
    <tripinfo id="22" depart="20.00" departLane="597602756#0_0" departPos="5.10" departSpeed="21.82" departDelay="0.00" arrival="136.00" arrivalLane="-597602753#1_0" arrivalPos="143.59" arrivalSpeed="20.14" duration="116.00" routeLength="1638.96" waitingTime="12.00" waitingCount="2" stopTime="0.00" timeLoss="43.09" rerouteNo="0" devices="tripinfo_22" vType="DEFAULT_VEHTYPE" speedFactor="1.03" vaporized=""/>
    <tripinfo id="47" depart="56.00" departLane="-260998164#3_0" departPos="5.10" departSpeed="28.44" departDelay="0.00" arrival="137.00" arrivalLane="-597602756#0_0" arrivalPos="325.99" arrivalSpeed="22.48" duration="81.00" routeLength="1231.40" waitingTime="0.00" waitingCount="0" stopTime="0.00" timeLoss="10.25" rerouteNo="0" devices="tripinfo_47" vType="DEFAULT_VEHTYPE" speedFactor="1.02" vaporized=""/>
    <tripinfo id="8" depart="8.00" departLane="105681660#12_0" departPos="5.10" departSpeed="24.24" departDelay="0.00" arrival="141.00" arrivalLane="260998164#0_0" arrivalPos="257.55" arrivalSpeed="29.31" duration="133.00" routeLength="2169.41" waitingTime="12.00" waitingCount="1" stopTime="0.00" timeLoss="36.16" rerouteNo="0" devices="tripinfo_8" vType="DEFAULT_VEHTYPE" speedFactor="1.09" vaporized=""/>
    <tripinfo id="16" depart="16.00" departLane="105681660#12_0" departPos="5.10" departSpeed="24.06" departDelay="0.00" arrival="143.00" arrivalLane="260998164#0_0" arrivalPos="257.55" arrivalSpeed="29.74" duration="127.00" routeLength="2169.41" waitingTime="0.00" waitingCount="0" stopTime="0.00" timeLoss="29.43" rerouteNo="0" devices="tripinfo_16" vType="DEFAULT_VEHTYPE" speedFactor="1.08" vaporized=""/>
    <tripinfo id="81" depart="90.00" departLane="918280985_0" departPos="5.10" departSpeed="1.86" departDelay="2.00" arrival="145.00" arrivalLane="-318908683#1_0" arrivalPos="71.22" arrivalSpeed="13.11" duration="55.00" routeLength="674.50" waitingTime="10.00" waitingCount="1" stopTime="0.00" timeLoss="25.45" rerouteNo="0" devices="tripinfo_81" vType="DEFAULT_VEHTYPE" speedFactor="1.03" vaporized=""/>
    <tripinfo id="63" depart="72.00" departLane="918280985_0" departPos="5.10" departSpeed="14.12" departDelay="0.00" arrival="146.00" arrivalLane="15374898#0-AddedOffRampEdge_0" arrivalPos="100.00" arrivalSpeed="28.14" duration="74.00" routeLength="996.81" waitingTime="20.00" waitingCount="1" stopTime="0.00" timeLoss="36.15" rerouteNo="0" devices="tripinfo_63" vType="DEFAULT_VEHTYPE" speedFactor="1.02" vaporized=""/>
    <tripinfo id="29" depart="32.00" departLane="-260998164#3_0" departPos="5.10" departSpeed="28.33" departDelay="0.00" arrival="148.00" arrivalLane="-105681660#20_0" arrivalPos="806.12" arrivalSpeed="22.06" duration="116.00" routeLength="2198.46" waitingTime="1.00" waitingCount="1" stopTime="0.00" timeLoss="24.60" rerouteNo="0" devices="tripinfo_29" vType="DEFAULT_VEHTYPE" speedFactor="1.02" vaporized=""/>
    <tripinfo id="64" depart="73.00" departLane="-260998164#3_0" departPos="5.10" departSpeed="30.06" departDelay="0.00" arrival="150.00" arrivalLane="-597602756#0_0" arrivalPos="325.99" arrivalSpeed="22.99" duration="77.00" routeLength="1231.40" waitingTime="0.00" waitingCount="0" stopTime="0.00" timeLoss="9.73" rerouteNo="0" devices="tripinfo_64" vType="DEFAULT_VEHTYPE" speedFactor="1.08" vaporized=""/>
    <tripinfo id="10" depart="8.00" departLane="-260998164#3_0" departPos="5.10" departSpeed="28.25" departDelay="0.00" arrival="152.00" arrivalLane="422688976#1_0" arrivalPos="294.40" arrivalSpeed="28.23" duration="144.00" routeLength="1712.42" waitingTime="60.00" waitingCount="2" stopTime="0.00" timeLoss="81.92" rerouteNo="0" devices="tripinfo_10" vType="DEFAULT_VEHTYPE" speedFactor="1.02" vaporized=""/>
    <tripinfo id="11" depart="12.00" departLane="597602756#0_0" departPos="5.10" departSpeed="23.16" departDelay="0.00" arrival="152.00" arrivalLane="422688976#1_1" arrivalPos="294.40" arrivalSpeed="28.42" duration="140.00" routeLength="1985.14" waitingTime="32.00" waitingCount="2" stopTime="0.00" timeLoss="58.90" rerouteNo="0" devices="tripinfo_11" vType="DEFAULT_VEHTYPE" speedFactor="1.04" vaporized=""/>
    <tripinfo id="75" depart="83.00" departLane="918280985_0" departPos="5.10" departSpeed="12.88" departDelay="0.00" arrival="152.00" arrivalLane="15374898#0-AddedOffRampEdge_0" arrivalPos="100.00" arrivalSpeed="30.17" duration="69.00" routeLength="996.81" waitingTime="13.00" waitingCount="1" stopTime="0.00" timeLoss="33.77" rerouteNo="0" devices="tripinfo_75" vType="DEFAULT_VEHTYPE" speedFactor="1.10" vaporized=""/>
    <tripinfo id="26" depart="29.00" departLane="422685671#2_0" departPos="5.10" departSpeed="31.16" departDelay="0.00" arrival="154.00" arrivalLane="422688976#1_1" arrivalPos="294.40" arrivalSpeed="29.88" duration="125.00" routeLength="1317.05" waitingTime="53.00" waitingCount="1" stopTime="0.00" timeLoss="80.68" rerouteNo="0" devices="tripinfo_26" vType="DEFAULT_VEHTYPE" speedFactor="1.12" vaporized=""/>
    <tripinfo id="25" depart="27.00" departLane="597602756#0_0" departPos="5.10" departSpeed="25.65" departDelay="0.00" arrival="158.00" arrivalLane="422688976#1_1" arrivalPos="294.40" arrivalSpeed="31.47" duration="131.00" routeLength="1985.14" waitingTime="15.00" waitingCount="2" stopTime="0.00" timeLoss="57.89" rerouteNo="0" devices="tripinfo_25" vType="DEFAULT_VEHTYPE" speedFactor="1.15" vaporized=""/>
    <tripinfo id="82" depart="89.00" departLane="105681660#12_0" departPos="5.10" departSpeed="21.72" departDelay="0.00" arrival="159.00" arrivalLane="-597602753#1_0" arrivalPos="143.59" arrivalSpeed="21.49" duration="70.00" routeLength="1380.56" waitingTime="0.00" waitingCount="0" stopTime="0.00" timeLoss="5.77" rerouteNo="0" devices="tripinfo_82" vType="DEFAULT_VEHTYPE" speedFactor="0.98" vaporized=""/>
    <tripinfo id="12" depart="13.00" departLane="-260998164#3_0" departPos="5.10" departSpeed="25.02" departDelay="1.00" arrival="162.00" arrivalLane="918280984_0" arrivalPos="38.78" arrivalSpeed="11.65" duration="149.00" routeLength="1465.15" waitingTime="69.00" waitingCount="2" stopTime="0.00" timeLoss="85.80" rerouteNo="0" devices="tripinfo_12" vType="DEFAULT_VEHTYPE" speedFactor="0.90" vaporized=""/>
    <tripinfo id="41" depart="51.00" departLane="-260998164#3_0" departPos="5.10" departSpeed="29.55" departDelay="0.00" arrival="164.00" arrivalLane="918280984_0" arrivalPos="38.78" arrivalSpeed="14.63" duration="113.00" routeLength="1465.15" waitingTime="42.00" waitingCount="1" stopTime="0.00" timeLoss="59.31" rerouteNo="0" devices="tripinfo_41" vType="DEFAULT_VEHTYPE" speedFactor="1.06" vaporized=""/>
    <tripinfo id="76" depart="85.00" departLane="422688973_1" departPos="5.10" departSpeed="15.75" departDelay="0.00" arrival="164.00" arrivalLane="-597602753#1_0" arrivalPos="143.59" arrivalSpeed="24.36" duration="79.00" routeLength="1063.91" waitingTime="0.00" waitingCount="0" stopTime="0.00" timeLoss="16.73" rerouteNo="0" devices="tripinfo_76" vType="DEFAULT_VEHTYPE" speedFactor="1.14" vaporized=""/>
    <tripinfo id="19" depart="18.00" departLane="597602756#0_0" departPos="5.10" departSpeed="19.77" departDelay="0.00" arrival="166.00" arrivalLane="918280984_0" arrivalPos="38.78" arrivalSpeed="11.80" duration="148.00" routeLength="1737.87" waitingTime="35.00" waitingCount="2" stopTime="0.00" timeLoss="59.17" rerouteNo="0" devices="tripinfo_19" vType="DEFAULT_VEHTYPE" speedFactor="0.89" vaporized=""/>
    <tripinfo id="53" depart="63.00" departLane="422685671#2_0" departPos="5.10" departSpeed="25.19" departDelay="0.00" arrival="166.00" arrivalLane="-597602756#0_0" arrivalPos="325.99" arrivalSpeed="19.25" duration="103.00" routeLength="1760.65" waitingTime="0.00" waitingCount="0" stopTime="0.00" timeLoss="9.11" rerouteNo="0" devices="tripinfo_53" vType="DEFAULT_VEHTYPE" speedFactor="0.91" vaporized=""/>
    <tripinfo id="48" depart="59.00" departLane="597602753#0_0" departPos="5.10" departSpeed="22.15" departDelay="0.00" arrival="167.00" arrivalLane="-597602756#0_0" arrivalPos="325.99" arrivalSpeed="20.89" duration="108.00" routeLength="1646.04" waitingTime="13.00" waitingCount="1" stopTime="0.00" timeLoss="32.48" rerouteNo="0" devices="tripinfo_48" vType="DEFAULT_VEHTYPE" speedFactor="1.00" vaporized=""/>
    <tripinfo id="57" depart="69.00" departLane="422685671#2_1" departPos="5.10" departSpeed="29.33" departDelay="0.00" arrival="168.00" arrivalLane="918280984_0" arrivalPos="38.78" arrivalSpeed="13.38" duration="99.00" routeLength="1069.78" waitingTime="35.00" waitingCount="2" stopTime="0.00" timeLoss="57.81" rerouteNo="0" devices="tripinfo_57" vType="DEFAULT_VEHTYPE" speedFactor="1.06" vaporized=""/>
    <tripinfo id="37" depart="45.00" departLane="918280985_0" departPos="5.10" departSpeed="9.06" departDelay="0.00" arrival="171.00" arrivalLane="-597602753#1_0" arrivalPos="143.59" arrivalSpeed="19.93" duration="126.00" routeLength="1123.56" waitingTime="37.00" waitingCount="2" stopTime="0.00" timeLoss="51.84" rerouteNo="0" devices="tripinfo_37" vType="DEFAULT_VEHTYPE" speedFactor="0.90" vaporized=""/>
    <tripinfo id="31" depart="36.00" departLane="422688973_1" departPos="5.10" departSpeed="15.75" departDelay="0.00" arrival="172.00" arrivalLane="-597602753#1_0" arrivalPos="143.59" arrivalSpeed="22.05" duration="136.00" routeLength="1114.81" waitingTime="52.00" waitingCount="2" stopTime="0.00" timeLoss="76.68" rerouteNo="0" devices="tripinfo_31" vType="DEFAULT_VEHTYPE" speedFactor="1.10" vaporized=""/>
    <tripinfo id="61" depart="72.00" departLane="422685671#2_0" departPos="5.10" departSpeed="24.93" departDelay="0.00" arrival="175.00" arrivalLane="-597602756#0_0" arrivalPos="325.99" arrivalSpeed="19.84" duration="103.00" routeLength="1760.65" waitingTime="0.00" waitingCount="0" stopTime="0.00" timeLoss="8.56" rerouteNo="0" devices="tripinfo_61" vType="DEFAULT_VEHTYPE" speedFactor="0.90" vaporized=""/>
    <tripinfo id="66" depart="75.00" departLane="422688973_0" departPos="5.10" departSpeed="0.00" departDelay="0.00" arrival="178.00" arrivalLane="-597602753#1_0" arrivalPos="143.59" arrivalSpeed="21.79" duration="103.00" routeLength="1114.81" waitingTime="12.00" waitingCount="2" stopTime="0.00" timeLoss="38.18" rerouteNo="0" devices="tripinfo_66" vType="DEFAULT_VEHTYPE" speedFactor="1.01" vaporized=""/>
    <tripinfo id="72" depart="78.00" departLane="318908683#0_0" departPos="5.10" departSpeed="8.17" departDelay="0.00" arrival="179.00" arrivalLane="260998164#0_0" arrivalPos="257.55" arrivalSpeed="29.18" duration="101.00" routeLength="939.98" waitingTime="45.00" waitingCount="1" stopTime="0.00" timeLoss="64.72" rerouteNo="0" devices="tripinfo_72" vType="DEFAULT_VEHTYPE" speedFactor="1.06" vaporized=""/>
    <tripinfo id="34" depart="43.00" departLane="422688973_0" departPos="5.10" departSpeed="0.00" departDelay="0.00" arrival="181.00" arrivalLane="-105681660#20_0" arrivalPos="806.12" arrivalSpeed="23.23" duration="138.00" routeLength="1352.23" waitingTime="43.00" waitingCount="2" stopTime="0.00" timeLoss="67.78" rerouteNo="0" devices="tripinfo_34" vType="DEFAULT_VEHTYPE" speedFactor="1.07" vaporized=""/>
    <tripinfo id="56" depart="68.00" departLane="105681660#12_0" departPos="5.10" departSpeed="20.62" departDelay="0.00" arrival="182.00" arrivalLane="918280984_0" arrivalPos="38.78" arrivalSpeed="12.66" duration="114.00" routeLength="1405.13" waitingTime="11.00" waitingCount="2" stopTime="0.00" timeLoss="27.02" rerouteNo="0" devices="tripinfo_56" vType="DEFAULT_VEHTYPE" speedFactor="0.93" vaporized=""/>
    <tripinfo id="77" depart="86.00" departLane="918280985_0" departPos="5.10" departSpeed="10.42" departDelay="0.00" arrival="183.00" arrivalLane="-597602753#1_0" arrivalPos="143.59" arrivalSpeed="20.63" duration="97.00" routeLength="1123.56" waitingTime="11.00" waitingCount="1" stopTime="0.00" timeLoss="27.73" rerouteNo="0" devices="tripinfo_77" vType="DEFAULT_VEHTYPE" speedFactor="0.97" vaporized=""/>
    <tripinfo id="43" depart="52.00" departLane="422688973_0" departPos="5.10" departSpeed="0.00" departDelay="0.00" arrival="185.00" arrivalLane="-105681660#20_0" arrivalPos="806.12" arrivalSpeed="21.90" duration="133.00" routeLength="1352.23" waitingTime="36.00" waitingCount="2" stopTime="0.00" timeLoss="58.19" rerouteNo="0" devices="tripinfo_43" vType="DEFAULT_VEHTYPE" speedFactor="1.00" vaporized=""/>
    <tripinfo id="46" depart="55.00" departLane="105681660#12_0" departPos="5.10" departSpeed="21.37" departDelay="0.00" arrival="186.00" arrivalLane="260998164#0_0" arrivalPos="257.55" arrivalSpeed="26.31" duration="131.00" routeLength="2169.41" waitingTime="0.00" waitingCount="0" stopTime="0.00" timeLoss="20.73" rerouteNo="0" devices="tripinfo_46" vType="DEFAULT_VEHTYPE" speedFactor="0.96" vaporized=""/>
    <tripinfo id="88" depart="96.00" departLane="105681660#12_0" departPos="5.10" departSpeed="21.56" departDelay="0.00" arrival="188.00" arrivalLane="918280984_0" arrivalPos="38.78" arrivalSpeed="13.04" duration="92.00" routeLength="1405.13" waitingTime="0.00" waitingCount="0" stopTime="0.00" timeLoss="8.55" rerouteNo="0" devices="tripinfo_88" vType="DEFAULT_VEHTYPE" speedFactor="0.97" vaporized=""/>
    <tripinfo id="79" depart="88.00" departLane="918280985_0" departPos="5.10" departSpeed="7.20" departDelay="0.00" arrival="192.00" arrivalLane="-105681660#20_0" arrivalPos="806.12" arrivalSpeed="23.74" duration="104.00" routeLength="1360.98" waitingTime="11.00" waitingCount="1" stopTime="0.00" timeLoss="32.51" rerouteNo="0" devices="tripinfo_79" vType="DEFAULT_VEHTYPE" speedFactor="1.08" vaporized=""/>
    <tripinfo id="59" depart="71.00" departLane="105681660#12_0" departPos="5.10" departSpeed="22.94" departDelay="0.00" arrival="193.00" arrivalLane="422688976#1_0" arrivalPos="294.40" arrivalSpeed="28.15" duration="122.00" routeLength="1630.66" waitingTime="9.00" waitingCount="2" stopTime="0.00" timeLoss="36.75" rerouteNo="0" devices="tripinfo_59" vType="DEFAULT_VEHTYPE" speedFactor="1.03" vaporized=""/>
    <tripinfo id="65" depart="73.00" departLane="105681660#12_0" departPos="5.10" departSpeed="21.68" departDelay="0.00" arrival="195.00" arrivalLane="422688976#1_0" arrivalPos="294.40" arrivalSpeed="25.91" duration="122.00" routeLength="1630.66" waitingTime="5.00" waitingCount="2" stopTime="0.00" timeLoss="32.86" rerouteNo="0" devices="tripinfo_65" vType="DEFAULT_VEHTYPE" speedFactor="0.98" vaporized=""/>
    <tripinfo id="32" depart="38.00" departLane="-260998164#3_0" departPos="5.10" departSpeed="23.20" departDelay="0.00" arrival="196.00" arrivalLane="-597602753#1_0" arrivalPos="143.59" arrivalSpeed="17.80" duration="158.00" routeLength="1969.75" waitingTime="36.00" waitingCount="2" stopTime="0.00" timeLoss="59.02" rerouteNo="0" devices="tripinfo_32" vType="DEFAULT_VEHTYPE" speedFactor="0.83" vaporized=""/>
    <tripinfo id="33" depart="41.00" departLane="422685671#2_0" departPos="5.10" departSpeed="28.62" departDelay="0.00" arrival="197.00" arrivalLane="-597602753#1_0" arrivalPos="143.59" arrivalSpeed="19.89" duration="156.00" routeLength="1584.34" waitingTime="60.00" waitingCount="2" stopTime="0.00" timeLoss="88.72" rerouteNo="0" devices="tripinfo_33" vType="DEFAULT_VEHTYPE" speedFactor="1.03" vaporized=""/>
    <tripinfo id="45" depart="53.00" departLane="422688973_0" departPos="5.10" departSpeed="13.62" departDelay="0.00" arrival="199.00" arrivalLane="260998164#0_0" arrivalPos="257.55" arrivalSpeed="24.95" duration="146.00" routeLength="1470.06" waitingTime="60.00" waitingCount="2" stopTime="0.00" timeLoss="85.04" rerouteNo="0" devices="tripinfo_45" vType="DEFAULT_VEHTYPE" speedFactor="0.90" vaporized=""/>
    <tripinfo id="62" depart="72.00" departLane="422685671#2_1" departPos="5.10" departSpeed="30.19" departDelay="0.00" arrival="199.00" arrivalLane="-597602753#1_0" arrivalPos="143.59" arrivalSpeed="22.53" duration="127.00" routeLength="1584.34" waitingTime="29.00" waitingCount="2" stopTime="0.00" timeLoss="62.76" rerouteNo="0" devices="tripinfo_62" vType="DEFAULT_VEHTYPE" speedFactor="1.09" vaporized=""/>
    <tripinfo id="103" depart="112.00" departLane="597602753#0_0" departPos="5.10" departSpeed="22.56" departDelay="0.00" arrival="199.00" arrivalLane="422688976#1_0" arrivalPos="294.40" arrivalSpeed="27.51" duration="87.00" routeLength="1286.53" waitingTime="0.00" waitingCount="0" stopTime="0.00" timeLoss="11.17" rerouteNo="0" devices="tripinfo_103" vType="DEFAULT_VEHTYPE" speedFactor="1.04" vaporized=""/>
    <tripinfo id="51" depart="61.00" departLane="422688973_1" departPos="5.10" departSpeed="11.16" departDelay="0.00" arrival="200.00" arrivalLane="260998164#0_0" arrivalPos="257.55" arrivalSpeed="26.51" duration="139.00" routeLength="1470.06" waitingTime="57.00" waitingCount="1" stopTime="0.00" timeLoss="83.63" rerouteNo="0" devices="tripinfo_51" vType="DEFAULT_VEHTYPE" speedFactor="0.99" vaporized=""/>
    <tripinfo id="78" depart="87.00" departLane="422685671#2_1" departPos="5.10" departSpeed="26.35" departDelay="0.00" arrival="200.00" arrivalLane="-597602753#1_0" arrivalPos="143.59" arrivalSpeed="20.51" duration="113.00" routeLength="1584.34" waitingTime="11.00" waitingCount="1" stopTime="0.00" timeLoss="40.23" rerouteNo="0" devices="tripinfo_78" vType="DEFAULT_VEHTYPE" speedFactor="0.95" vaporized=""/>
    <tripinfo id="83" depart="90.00" departLane="-260998164#3_0" departPos="5.10" departSpeed="29.58" departDelay="0.00" arrival="202.00" arrivalLane="-597602753#1_0" arrivalPos="143.59" arrivalSpeed="23.06" duration="112.00" routeLength="1969.75" waitingTime="8.00" waitingCount="1" stopTime="0.00" timeLoss="33.84" rerouteNo="0" devices="tripinfo_83" vType="DEFAULT_VEHTYPE" speedFactor="1.06" vaporized=""/>
    <tripinfo id="71" depart="78.00" departLane="918280985_0" departPos="5.10" departSpeed="11.96" departDelay="0.00" arrival="203.00" arrivalLane="260998164#0_0" arrivalPos="257.55" arrivalSpeed="23.56" duration="125.00" routeLength="1460.33" waitingTime="35.00" waitingCount="2" stopTime="0.00" timeLoss="58.79" rerouteNo="0" devices="tripinfo_71" vType="DEFAULT_VEHTYPE" speedFactor="0.86" vaporized=""/>
    <tripinfo id="6" depart="4.00" departLane="597602753#0_0" departPos="5.10" departSpeed="20.69" departDelay="0.00" arrival="205.00" arrivalLane="15374898#0-AddedOffRampEdge_0" arrivalPos="100.00" arrivalSpeed="25.98" duration="201.00" routeLength="1981.16" waitingTime="77.00" waitingCount="1" stopTime="0.00" timeLoss="111.51" rerouteNo="0" devices="tripinfo_6" vType="DEFAULT_VEHTYPE" speedFactor="1.08" vaporized=""/>
    <tripinfo id="92" depart="103.00" departLane="-260998164#3_0" departPos="5.10" departSpeed="27.14" departDelay="0.00" arrival="205.00" arrivalLane="15374898#0-AddedOffRampEdge_1" arrivalPos="100.00" arrivalSpeed="26.05" duration="102.00" routeLength="1332.80" waitingTime="40.00" waitingCount="1" stopTime="0.00" timeLoss="52.01" rerouteNo="0" devices="tripinfo_92" vType="DEFAULT_VEHTYPE" speedFactor="0.98" vaporized=""/>