<?xml version="1.0" encoding="UTF-8"?>

<!-- generated on 2023-04-28 14:52:45 by Eclipse SUMO sumo Version 1.16.0
<configuration xmlns:xsi="http://www.w3.org/2001/XMLSchema-instance" xsi:noNamespaceSchemaLocation="http://sumo.dlr.de/xsd/sumoConfiguration.xsd">

    <input>
        <net-file value="010/../configurations/maps/Random_English.net.xml"/>
        <route-files value="010/Trips_File_010.rou.xml"/>
        <additional-files value="010/../edgedata.add.xml"/>
    </input>

    <output>
        <output-prefix value="010/"/>
        <summary-output value="010/../summary_010.xml"/>
        <tripinfo-output value="010/../tripinfo_010.xml"/>
    </output>

    <time>
        <begin value="0"/>
    </time>

    <processing>
        <route-steps value="200"/>
        <no-internal-links value="False"/>
        <time-to-teleport value="300"/>
        <time-to-teleport.highways value="0"/>
        <eager-insert value="False"/>
    </processing>

    <report>
        <verbose value="true"/>
        <no-warnings value="False"/>
        <log value="010/../iteration_010.sumo.log"/>
        <no-step-log value="true"/>
    </report>

    <mesoscopic>
        <mesosim value="true"/>
        <meso-recheck value="0"/>
    </mesoscopic>

    <random_number>
        <random value="False"/>
    </random_number>

</configuration>
-->

<tripinfos xmlns:xsi="http://www.w3.org/2001/XMLSchema-instance" xsi:noNamespaceSchemaLocation="http://sumo.dlr.de/xsd/tripinfo_file.xsd">
    <tripinfo id="11" depart="9.00" departLane="" departPos="0.00" departSpeed="11.90" departDelay="0.00" arrival="38.00" arrivalLane="" arrivalPos="137.52" arrivalSpeed="11.90" duration="29.00" routeLength="342.86" waitingTime="0.00" waitingCount="0" stopTime="0.00" timeLoss="0.00" rerouteNo="0" devices="tripinfo_11" vType="DEFAULT_VEHTYPE" speedFactor="0.86" vaporized=""/>
    <tripinfo id="20" depart="17.00" departLane="" departPos="0.00" departSpeed="13.00" departDelay="0.00" arrival="52.00" arrivalLane="" arrivalPos="195.19" arrivalSpeed="13.00" duration="35.00" routeLength="443.02" waitingTime="0.00" waitingCount="0" stopTime="0.00" timeLoss="0.00" rerouteNo="0" devices="tripinfo_20" vType="DEFAULT_VEHTYPE" speedFactor="0.94" vaporized=""/>
    <tripinfo id="5" depart="1.00" departLane="" departPos="0.00" departSpeed="15.04" departDelay="0.00" arrival="60.00" arrivalLane="" arrivalPos="141.23" arrivalSpeed="15.04" duration="59.00" routeLength="875.05" waitingTime="0.00" waitingCount="0" stopTime="0.00" timeLoss="0.00" rerouteNo="0" devices="tripinfo_5" vType="DEFAULT_VEHTYPE" speedFactor="1.08" vaporized=""/>
    <tripinfo id="16" depart="12.00" departLane="" departPos="0.00" departSpeed="13.77" departDelay="0.00" arrival="66.00" arrivalLane="" arrivalPos="168.47" arrivalSpeed="13.77" duration="54.00" routeLength="736.90" waitingTime="0.00" waitingCount="0" stopTime="0.00" timeLoss="0.00" rerouteNo="0" devices="tripinfo_16" vType="DEFAULT_VEHTYPE" speedFactor="0.99" vaporized=""/>
    <tripinfo id="45" depart="42.00" departLane="" departPos="0.00" departSpeed="14.41" departDelay="0.00" arrival="68.00" arrivalLane="" arrivalPos="200.29" arrivalSpeed="14.42" duration="26.00" routeLength="368.76" waitingTime="0.00" waitingCount="0" stopTime="0.00" timeLoss="0.00" rerouteNo="0" devices="tripinfo_45" vType="DEFAULT_VEHTYPE" speedFactor="1.04" vaporized=""/>
    <tripinfo id="2" depart="0.00" departLane="" departPos="0.00" departSpeed="14.72" departDelay="0.00" arrival="74.00" arrivalLane="" arrivalPos="219.47" arrivalSpeed="14.72" duration="74.00" routeLength="1078.37" waitingTime="0.00" waitingCount="0" stopTime="0.00" timeLoss="0.00" rerouteNo="0" devices="tripinfo_2" vType="DEFAULT_VEHTYPE" speedFactor="1.06" vaporized=""/>
    <tripinfo id="12" depart="9.00" departLane="" departPos="0.00" departSpeed="15.15" departDelay="0.00" arrival="75.00" arrivalLane="" arrivalPos="101.06" arrivalSpeed="15.15" duration="66.00" routeLength="995.00" waitingTime="0.00" waitingCount="0" stopTime="0.00" timeLoss="0.00" rerouteNo="0" devices="tripinfo_12" vType="DEFAULT_VEHTYPE" speedFactor="1.09" vaporized=""/>
    <tripinfo id="49" depart="51.00" departLane="" departPos="0.00" departSpeed="12.51" departDelay="0.00" arrival="75.00" arrivalLane="" arrivalPos="87.10" arrivalSpeed="12.51" duration="24.00" routeLength="294.25" waitingTime="0.00" waitingCount="0" stopTime="0.00" timeLoss="0.00" rerouteNo="0" devices="tripinfo_49" vType="DEFAULT_VEHTYPE" speedFactor="0.90" vaporized=""/>
    <tripinfo id="51" depart="52.00" departLane="" departPos="0.00" departSpeed="11.81" departDelay="0.00" arrival="78.00" arrivalLane="" arrivalPos="194.85" arrivalSpeed="11.81" duration="26.00" routeLength="307.00" waitingTime="0.00" waitingCount="0" stopTime="0.00" timeLoss="0.00" rerouteNo="0" devices="tripinfo_51" vType="DEFAULT_VEHTYPE" speedFactor="0.85" vaporized=""/>
    <tripinfo id="8" depart="4.00" departLane="" departPos="0.00" departSpeed="14.53" departDelay="0.00" arrival="90.00" arrivalLane="" arrivalPos="129.97" arrivalSpeed="14.53" duration="86.00" routeLength="1238.79" waitingTime="0.00" waitingCount="0" stopTime="0.00" timeLoss="0.00" rerouteNo="0" devices="tripinfo_8" vType="DEFAULT_VEHTYPE" speedFactor="1.05" vaporized=""/>
    <tripinfo id="6" depart="4.00" departLane="" departPos="0.00" departSpeed="14.31" departDelay="0.00" arrival="92.00" arrivalLane="" arrivalPos="188.90" arrivalSpeed="14.31" duration="88.00" routeLength="1259.03" waitingTime="0.00" waitingCount="0" stopTime="0.00" timeLoss="0.00" rerouteNo="0" devices="tripinfo_6" vType="DEFAULT_VEHTYPE" speedFactor="1.03" vaporized=""/>
    <tripinfo id="13" depart="10.00" departLane="" departPos="0.00" departSpeed="14.26" departDelay="0.00" arrival="94.00" arrivalLane="" arrivalPos="148.18" arrivalSpeed="14.26" duration="84.00" routeLength="1187.29" waitingTime="0.00" waitingCount="0" stopTime="0.00" timeLoss="0.00" rerouteNo="0" devices="tripinfo_13" vType="DEFAULT_VEHTYPE" speedFactor="1.03" vaporized=""/>
    <tripinfo id="56" depart="58.00" departLane="" departPos="0.00" departSpeed="13.93" departDelay="0.00" arrival="95.00" arrivalLane="" arrivalPos="111.07" arrivalSpeed="13.93" duration="37.00" routeLength="515.21" waitingTime="0.00" waitingCount="0" stopTime="0.00" timeLoss="0.00" rerouteNo="0" devices="tripinfo_56" vType="DEFAULT_VEHTYPE" speedFactor="1.00" vaporized=""/>
    <tripinfo id="68" depart="70.00" departLane="" departPos="0.00" departSpeed="12.59" departDelay="0.00" arrival="98.00" arrivalLane="" arrivalPos="166.55" arrivalSpeed="12.59" duration="28.00" routeLength="350.13" waitingTime="0.00" waitingCount="0" stopTime="0.00" timeLoss="0.00" rerouteNo="0" devices="tripinfo_68" vType="DEFAULT_VEHTYPE" speedFactor="0.91" vaporized=""/>
    <tripinfo id="17" depart="13.00" departLane="" departPos="0.00" departSpeed="12.87" departDelay="0.00" arrival="102.00" arrivalLane="" arrivalPos="137.51" arrivalSpeed="12.87" duration="89.00" routeLength="1139.15" waitingTime="0.00" waitingCount="0" stopTime="0.00" timeLoss="0.00" rerouteNo="0" devices="tripinfo_17" vType="DEFAULT_VEHTYPE" speedFactor="0.93" vaporized=""/>
    <tripinfo id="61" depart="63.00" departLane="" departPos="0.00" departSpeed="13.47" departDelay="0.00" arrival="113.00" arrivalLane="" arrivalPos="105.25" arrivalSpeed="13.47" duration="50.00" routeLength="671.11" waitingTime="0.00" waitingCount="0" stopTime="0.00" timeLoss="0.00" rerouteNo="0" devices="tripinfo_61" vType="DEFAULT_VEHTYPE" speedFactor="0.97" vaporized=""/>
    <tripinfo id="32" depart="30.00" departLane="" departPos="0.00" departSpeed="16.37" departDelay="0.00" arrival="114.00" arrivalLane="" arrivalPos="110.46" arrivalSpeed="16.37" duration="84.00" routeLength="1359.93" waitingTime="0.00" waitingCount="0" stopTime="0.00" timeLoss="0.00" rerouteNo="0" devices="tripinfo_32" vType="DEFAULT_VEHTYPE" speedFactor="1.18" vaporized=""/>
    <tripinfo id="39" depart="39.00" departLane="" departPos="0.00" departSpeed="16.39" departDelay="0.00" arrival="114.00" arrivalLane="" arrivalPos="203.37" arrivalSpeed="16.38" duration="75.00" routeLength="1215.18" waitingTime="0.00" waitingCount="0" stopTime="0.00" timeLoss="0.00" rerouteNo="0" devices="tripinfo_39" vType="DEFAULT_VEHTYPE" speedFactor="1.18" vaporized=""/>
    <tripinfo id="47" depart="46.00" departLane="" departPos="0.00" departSpeed="15.11" departDelay="0.00" arrival="114.00" arrivalLane="" arrivalPos="128.55" arrivalSpeed="15.11" duration="68.00" routeLength="1006.99" waitingTime="0.46" waitingCount="0" stopTime="0.00" timeLoss="1.15" rerouteNo="0" devices="tripinfo_47" vType="DEFAULT_VEHTYPE" speedFactor="1.09" vaporized=""/>
    <tripinfo id="31" depart="29.00" departLane="" departPos="0.00" departSpeed="12.94" departDelay="0.00" arrival="116.00" arrivalLane="" arrivalPos="104.02" arrivalSpeed="12.94" duration="87.00" routeLength="1114.74" waitingTime="0.00" waitingCount="0" stopTime="0.00" timeLoss="0.00" rerouteNo="0" devices="tripinfo_31" vType="DEFAULT_VEHTYPE" speedFactor="0.93" vaporized=""/>
    <tripinfo id="10" depart="7.00" departLane="" departPos="0.00" departSpeed="13.03" departDelay="0.00" arrival="118.00" arrivalLane="" arrivalPos="182.56" arrivalSpeed="13.03" duration="111.00" routeLength="1437.05" waitingTime="0.00" waitingCount="0" stopTime="0.00" timeLoss="0.00" rerouteNo="0" devices="tripinfo_10" vType="DEFAULT_VEHTYPE" speedFactor="0.94" vaporized=""/>
    <tripinfo id="23" depart="20.00" departLane="" departPos="0.00" departSpeed="14.03" departDelay="0.00" arrival="125.00" arrivalLane="" arrivalPos="216.58" arrivalSpeed="14.03" duration="105.00" routeLength="1465.74" waitingTime="0.00" waitingCount="0" stopTime="0.00" timeLoss="0.00" rerouteNo="0" devices="tripinfo_23" vType="DEFAULT_VEHTYPE" speedFactor="1.01" vaporized=""/>
    <tripinfo id="90" depart="93.00" departLane="" departPos="0.00" departSpeed="13.99" departDelay="0.00" arrival="125.00" arrivalLane="" arrivalPos="95.18" arrivalSpeed="13.99" duration="32.00" routeLength="441.15" waitingTime="0.00" waitingCount="0" stopTime="0.00" timeLoss="0.00" rerouteNo="0" devices="tripinfo_90" vType="DEFAULT_VEHTYPE" speedFactor="1.01" vaporized=""/>
    <tripinfo id="22" depart="18.00" departLane="" departPos="0.00" departSpeed="14.14" departDelay="0.00" arrival="126.00" arrivalLane="" arrivalPos="82.38" arrivalSpeed="14.14" duration="108.00" routeLength="1521.49" waitingTime="0.00" waitingCount="0" stopTime="0.00" timeLoss="0.02" rerouteNo="0" devices="tripinfo_22" vType="DEFAULT_VEHTYPE" speedFactor="1.02" vaporized=""/>
    <tripinfo id="63" depart="65.00" departLane="" departPos="0.00" departSpeed="15.55" departDelay="0.00" arrival="128.00" arrivalLane="" arrivalPos="111.07" arrivalSpeed="15.55" duration="63.00" routeLength="974.92" waitingTime="0.00" waitingCount="0" stopTime="0.00" timeLoss="0.00" rerouteNo="0" devices="tripinfo_63" vType="DEFAULT_VEHTYPE" speedFactor="1.12" vaporized=""/>
    <tripinfo id="4" depart="1.00" departLane="" departPos="0.00" departSpeed="14.03" departDelay="0.00" arrival="130.00" arrivalLane="" arrivalPos="112.51" arrivalSpeed="14.03" duration="129.00" routeLength="1797.79" waitingTime="0.00" waitingCount="0" stopTime="0.00" timeLoss="0.89" rerouteNo="0" devices="tripinfo_4" vType="DEFAULT_VEHTYPE" speedFactor="1.01" vaporized=""/>
    <tripinfo id="111" depart="107.00" departLane="" departPos="0.00" departSpeed="13.33" departDelay="0.00" arrival="131.00" arrivalLane="" arrivalPos="194.85" arrivalSpeed="13.33" duration="24.00" routeLength="307.00" waitingTime="0.00" waitingCount="0" stopTime="0.00" timeLoss="0.00" rerouteNo="0" devices="tripinfo_111" vType="DEFAULT_VEHTYPE" speedFactor="0.96" vaporized=""/>
    <tripinfo id="34" depart="31.00" departLane="" departPos="0.00" departSpeed="13.96" departDelay="0.00" arrival="132.00" arrivalLane="" arrivalPos="230.55" arrivalSpeed="13.96" duration="101.00" routeLength="1398.86" waitingTime="0.00" waitingCount="0" stopTime="0.00" timeLoss="0.00" rerouteNo="0" devices="tripinfo_34" vType="DEFAULT_VEHTYPE" speedFactor="1.01" vaporized=""/>
    <tripinfo id="19" depart="13.00" departLane="" departPos="0.00" departSpeed="13.08" departDelay="0.00" arrival="133.00" arrivalLane="" arrivalPos="214.96" arrivalSpeed="13.08" duration="120.00" routeLength="1558.28" waitingTime="0.00" waitingCount="0" stopTime="0.00" timeLoss="0.00" rerouteNo="0" devices="tripinfo_19" vType="DEFAULT_VEHTYPE" speedFactor="0.94" vaporized=""/>
    <tripinfo id="21" depart="17.00" departLane="" departPos="0.00" departSpeed="16.09" departDelay="0.00" arrival="133.00" arrivalLane="" arrivalPos="166.55" arrivalSpeed="16.09" duration="116.00" routeLength="1854.33" waitingTime="0.00" waitingCount="0" stopTime="0.00" timeLoss="0.00" rerouteNo="0" devices="tripinfo_21" vType="DEFAULT_VEHTYPE" speedFactor="1.16" vaporized=""/>
    <tripinfo id="28" depart="24.00" departLane="" departPos="0.00" departSpeed="12.74" departDelay="0.00" arrival="136.00" arrivalLane="" arrivalPos="140.80" arrivalSpeed="12.74" duration="112.00" routeLength="1425.19" waitingTime="0.00" waitingCount="0" stopTime="0.00" timeLoss="0.00" rerouteNo="0" devices="tripinfo_28" vType="DEFAULT_VEHTYPE" speedFactor="0.92" vaporized=""/>
    <tripinfo id="60" depart="61.00" departLane="" departPos="0.00" departSpeed="14.22" departDelay="0.00" arrival="139.00" arrivalLane="" arrivalPos="157.10" arrivalSpeed="13.33" duration="78.00" routeLength="1086.39" waitingTime="0.00" waitingCount="0" stopTime="0.00" timeLoss="0.93" rerouteNo="0" devices="tripinfo_60" vType="DEFAULT_VEHTYPE" speedFactor="1.02" vaporized=""/>
    <tripinfo id="33" depart="31.00" departLane="" departPos="0.00" departSpeed="16.03" departDelay="0.00" arrival="140.00" arrivalLane="" arrivalPos="85.19" arrivalSpeed="16.03" duration="109.00" routeLength="1732.62" waitingTime="0.00" waitingCount="0" stopTime="0.00" timeLoss="0.00" rerouteNo="0" devices="tripinfo_33" vType="DEFAULT_VEHTYPE" speedFactor="1.15" vaporized=""/>
    <tripinfo id="78" depart="86.00" departLane="" departPos="0.00" departSpeed="14.34" departDelay="0.00" arrival="141.00" arrivalLane="" arrivalPos="144.48" arrivalSpeed="14.34" duration="55.00" routeLength="781.24" waitingTime="0.00" waitingCount="0" stopTime="0.00" timeLoss="0.00" rerouteNo="0" devices="tripinfo_78" vType="DEFAULT_VEHTYPE" speedFactor="1.03" vaporized=""/>
    <tripinfo id="18" depart="13.00" departLane="" departPos="0.00" departSpeed="12.20" departDelay="0.00" arrival="142.00" arrivalLane="" arrivalPos="184.87" arrivalSpeed="12.20" duration="129.00" routeLength="1564.36" waitingTime="0.00" waitingCount="0" stopTime="0.00" timeLoss="0.00" rerouteNo="0" devices="tripinfo_18" vType="DEFAULT_VEHTYPE" speedFactor="0.88" vaporized=""/>
    <tripinfo id="3" depart="0.00" departLane="" departPos="0.00" departSpeed="13.03" departDelay="0.00" arrival="147.00" arrivalLane="" arrivalPos="194.73" arrivalSpeed="13.03" duration="147.00" routeLength="1908.75" waitingTime="0.00" waitingCount="0" stopTime="0.00" timeLoss="0.00" rerouteNo="0" devices="tripinfo_3" vType="DEFAULT_VEHTYPE" speedFactor="0.94" vaporized=""/>
    <tripinfo id="114" depart="112.00" departLane="" departPos="0.00" departSpeed="15.26" departDelay="0.00" arrival="149.00" arrivalLane="" arrivalPos="135.09" arrivalSpeed="15.26" duration="37.00" routeLength="553.47" waitingTime="0.00" waitingCount="0" stopTime="0.00" timeLoss="0.00" rerouteNo="0" devices="tripinfo_114" vType="DEFAULT_VEHTYPE" speedFactor="1.10" vaporized=""/>
    <tripinfo id="36" depart="36.00" departLane="" departPos="0.00" departSpeed="13.82" departDelay="0.00" arrival="150.00" arrivalLane="" arrivalPos="189.44" arrivalSpeed="13.82" duration="114.00" routeLength="1522.46" waitingTime="1.13" waitingCount="0" stopTime="0.00" timeLoss="3.20" rerouteNo="0" devices="tripinfo_36" vType="DEFAULT_VEHTYPE" speedFactor="0.99" vaporized=""/>
    <tripinfo id="9" depart="5.00" departLane="" departPos="0.00" departSpeed="12.31" departDelay="0.00" arrival="151.00" arrivalLane="" arrivalPos="181.36" arrivalSpeed="12.31" duration="146.00" routeLength="1789.65" waitingTime="0.00" waitingCount="0" stopTime="0.00" timeLoss="0.00" rerouteNo="0" devices="tripinfo_9" vType="DEFAULT_VEHTYPE" speedFactor="0.89" vaporized=""/>
    <tripinfo id="40" depart="39.00" departLane="" departPos="0.00" departSpeed="15.31" departDelay="0.00" arrival="151.00" arrivalLane="" arrivalPos="145.77" arrivalSpeed="15.31" duration="112.00" routeLength="1709.61" waitingTime="0.00" waitingCount="0" stopTime="0.00" timeLoss="0.00" rerouteNo="0" devices="tripinfo_40" vType="DEFAULT_VEHTYPE" speedFactor="1.10" vaporized=""/>
    <tripinfo id="50" depart="52.00" departLane="" departPos="0.00" departSpeed="12.18" departDelay="0.00" arrival="152.00" arrivalLane="" arrivalPos="156.98" arrivalSpeed="12.18" duration="100.00" routeLength="1210.14" waitingTime="0.00" waitingCount="0" stopTime="0.00" timeLoss="0.00" rerouteNo="0" devices="tripinfo_50" vType="DEFAULT_VEHTYPE" speedFactor="0.88" vaporized=""/>
    <tripinfo id="35" depart="34.00" departLane="" departPos="0.00" departSpeed="16.28" departDelay="0.00" arrival="153.00" arrivalLane="" arrivalPos="184.52" arrivalSpeed="16.28" duration="119.00" routeLength="1925.45" waitingTime="0.00" waitingCount="0" stopTime="0.00" timeLoss="0.00" rerouteNo="0" devices="tripinfo_35" vType="DEFAULT_VEHTYPE" speedFactor="1.17" vaporized=""/>
    <tripinfo id="26" depart="21.00" departLane="" departPos="0.00" departSpeed="11.47" departDelay="0.00" arrival="155.00" arrivalLane="" arrivalPos="100.82" arrivalSpeed="11.47" duration="134.00" routeLength="1533.44" waitingTime="0.00" waitingCount="0" stopTime="0.00" timeLoss="0.00" rerouteNo="0" devices="tripinfo_26" vType="DEFAULT_VEHTYPE" speedFactor="0.83" vaporized=""/>
    <tripinfo id="84" depart="91.00" departLane="" departPos="0.00" departSpeed="14.12" departDelay="0.00" arrival="155.00" arrivalLane="" arrivalPos="209.89" arrivalSpeed="14.12" duration="64.00" routeLength="894.14" waitingTime="0.00" waitingCount="0" stopTime="0.00" timeLoss="0.00" rerouteNo="0" devices="tripinfo_84" vType="DEFAULT_VEHTYPE" speedFactor="1.02" vaporized=""/>
    <tripinfo id="24" depart="21.00" departLane="" departPos="0.00" departSpeed="13.54" departDelay="0.00" arrival="156.00" arrivalLane="" arrivalPos="194.19" arrivalSpeed="13.54" duration="135.00" routeLength="1826.65" waitingTime="0.00" waitingCount="0" stopTime="0.00" timeLoss="0.00" rerouteNo="0" devices="tripinfo_24" vType="DEFAULT_VEHTYPE" speedFactor="0.97" vaporized=""/>
    <tripinfo id="104" depart="103.00" departLane="" departPos="0.00" departSpeed="13.45" departDelay="0.00" arrival="158.00" arrivalLane="" arrivalPos="119.37" arrivalSpeed="13.45" duration="55.00" routeLength="731.18" waitingTime="0.00" waitingCount="0" stopTime="0.00" timeLoss="0.00" rerouteNo="0" devices="tripinfo_104" vType="DEFAULT_VEHTYPE" speedFactor="0.97" vaporized=""/>
    <tripinfo id="15" depart="11.00" departLane="" departPos="0.00" departSpeed="15.60" departDelay="0.00" arrival="165.00" arrivalLane="" arrivalPos="194.73" arrivalSpeed="15.60" duration="154.00" routeLength="2392.29" waitingTime="0.00" waitingCount="0" stopTime="0.00" timeLoss="0.00" rerouteNo="0" devices="tripinfo_15" vType="DEFAULT_VEHTYPE" speedFactor="1.12" vaporized=""/>
    <tripinfo id="37" depart="38.00" departLane="" departPos="0.00" departSpeed="14.16" departDelay="0.00" arrival="165.00" arrivalLane="" arrivalPos="199.02" arrivalSpeed="14.16" duration="127.00" routeLength="1793.66" waitingTime="0.00" waitingCount="0" stopTime="0.00" timeLoss="0.00" rerouteNo="0" devices="tripinfo_37" vType="DEFAULT_VEHTYPE" speedFactor="1.02" vaporized=""/>
    <tripinfo id="62" depart="64.00" departLane="" departPos="0.00" departSpeed="15.04" departDelay="0.00" arrival="168.00" arrivalLane="" arrivalPos="209.36" arrivalSpeed="15.04" duration="104.00" routeLength="1550.74" waitingTime="0.00" waitingCount="0" stopTime="0.00" timeLoss="0.00" rerouteNo="0" devices="tripinfo_62" vType="DEFAULT_VEHTYPE" speedFactor="1.08" vaporized=""/>
    <tripinfo id="94" depart="96.00" departLane="" departPos="0.00" departSpeed="11.58" departDelay="0.00" arrival="168.00" arrivalLane="" arrivalPos="168.57" arrivalSpeed="11.58" duration="72.00" routeLength="824.20" waitingTime="0.00" waitingCount="0" stopTime="0.00" timeLoss="0.00" rerouteNo="0" devices="tripinfo_94" vType="DEFAULT_VEHTYPE" speedFactor="0.83" vaporized=""/>
    <tripinfo id="53" depart="54.00" departLane="" departPos="0.00" departSpeed="16.24" departDelay="0.00" arrival="169.00" arrivalLane="" arrivalPos="105.93" arrivalSpeed="16.24" duration="115.00" routeLength="1777.71" waitingTime="1.67" waitingCount="0" stopTime="0.00" timeLoss="5.33" rerouteNo="0" devices="tripinfo_53" vType="DEFAULT_VEHTYPE" speedFactor="1.17" vaporized=""/>
    <tripinfo id="87" depart="92.00" departLane="" departPos="0.00" departSpeed="13.55" departDelay="0.00" arrival="169.00" arrivalLane="" arrivalPos="113.62" arrivalSpeed="13.56" duration="77.00" routeLength="1032.81" waitingTime="0.00" waitingCount="0" stopTime="0.00" timeLoss="0.00" rerouteNo="0" devices="tripinfo_87" vType="DEFAULT_VEHTYPE" speedFactor="0.98" vaporized=""/>
    <tripinfo id="91" depart="94.00" departLane="" departPos="0.00" departSpeed="14.20" departDelay="0.00" arrival="169.00" arrivalLane="" arrivalPos="123.06" arrivalSpeed="14.20" duration="75.00" routeLength="1056.27" waitingTime="0.00" waitingCount="0" stopTime="0.00" timeLoss="0.00" rerouteNo="0" devices="tripinfo_91" vType="DEFAULT_VEHTYPE" speedFactor="1.02" vaporized=""/>
    <tripinfo id="139" depart="131.00" departLane="" departPos="0.00" departSpeed="14.10" departDelay="0.00" arrival="170.00" arrivalLane="" arrivalPos="118.16" arrivalSpeed="14.10" duration="39.00" routeLength="549.58" waitingTime="0.00" waitingCount="0" stopTime="0.00" timeLoss="0.00" rerouteNo="0" devices="tripinfo_139" vType="DEFAULT_VEHTYPE" speedFactor="1.02" vaporized=""/>
    <tripinfo id="105" depart="103.00" departLane="" departPos="0.00" departSpeed="13.23" departDelay="0.00" arrival="171.00" arrivalLane="" arrivalPos="113.03" arrivalSpeed="13.23" duration="68.00" routeLength="898.01" waitingTime="0.00" waitingCount="0" stopTime="0.00" timeLoss="0.00" rerouteNo="0" devices="tripinfo_105" vType="DEFAULT_VEHTYPE" speedFactor="0.95" vaporized=""/>
    <tripinfo id="38" depart="38.00" departLane="" departPos="0.00" departSpeed="13.52" departDelay="0.00" arrival="172.00" arrivalLane="" arrivalPos="165.92" arrivalSpeed="13.52" duration="134.00" routeLength="1810.49" waitingTime="0.00" waitingCount="0" stopTime="0.00" timeLoss="0.00" rerouteNo="0" devices="tripinfo_38" vType="DEFAULT_VEHTYPE" speedFactor="0.97" vaporized=""/>
    <tripinfo id="48" depart="50.00" departLane="" departPos="0.00" departSpeed="13.85" departDelay="0.00" arrival="172.00" arrivalLane="" arrivalPos="171.84" arrivalSpeed="13.85" duration="122.00" routeLength="1683.44" waitingTime="0.00" waitingCount="0" stopTime="0.00" timeLoss="0.00" rerouteNo="0" devices="tripinfo_48" vType="DEFAULT_VEHTYPE" speedFactor="1.00" vaporized=""/>
    <tripinfo id="65" depart="66.00" departLane="" departPos="0.00" departSpeed="13.71" departDelay="0.00" arrival="173.00" arrivalLane="" arrivalPos="134.42" arrivalSpeed="13.71" duration="107.00" routeLength="1449.17" waitingTime="0.52" waitingCount="0" stopTime="0.00" timeLoss="0.52" rerouteNo="0" devices="tripinfo_65" vType="DEFAULT_VEHTYPE" speedFactor="0.99" vaporized=""/>
    <tripinfo id="30" depart="29.00" departLane="" departPos="0.00" departSpeed="15.72" departDelay="0.00" arrival="174.00" arrivalLane="" arrivalPos="136.99" arrivalSpeed="15.72" duration="145.00" routeLength="2237.59" waitingTime="1.11" waitingCount="0" stopTime="0.00" timeLoss="2.20" rerouteNo="0" devices="tripinfo_30" vType="DEFAULT_VEHTYPE" speedFactor="1.13" vaporized=""/>
    <tripinfo id="42" depart="41.00" departLane="" departPos="0.00" departSpeed="14.31" departDelay="0.00" arrival="174.00" arrivalLane="" arrivalPos="189.23" arrivalSpeed="12.51" duration="133.00" routeLength="1746.11" waitingTime="3.40" waitingCount="0" stopTime="0.00" timeLoss="10.41" rerouteNo="0" devices="tripinfo_42" vType="DEFAULT_VEHTYPE" speedFactor="1.03" vaporized=""/>
    <tripinfo id="149" depart="140.00" departLane="" departPos="0.00" departSpeed="13.92" departDelay="0.00" arrival="174.00" arrivalLane="" arrivalPos="98.82" arrivalSpeed="13.92" duration="34.00" routeLength="468.55" waitingTime="0.00" waitingCount="0" stopTime="0.00" timeLoss="0.00" rerouteNo="0" devices="tripinfo_149" vType="DEFAULT_VEHTYPE" speedFactor="1.00" vaporized=""/>
    <tripinfo id="76" depart="84.00" departLane="" departPos="0.00" departSpeed="13.27" departDelay="0.00" arrival="177.00" arrivalLane="" arrivalPos="99.88" arrivalSpeed="13.27" duration="93.00" routeLength="1227.28" waitingTime="0.00" waitingCount="0" stopTime="0.00" timeLoss="0.00" rerouteNo="0" devices="tripinfo_76" vType="DEFAULT_VEHTYPE" speedFactor="0.96" vaporized=""/>
    <tripinfo id="83" depart="91.00" departLane="" departPos="0.00" departSpeed="13.86" departDelay="0.00" arrival="177.00" arrivalLane="" arrivalPos="136.31" arrivalSpeed="13.86" duration="86.00" routeLength="1178.99" waitingTime="0.00" waitingCount="0" stopTime="0.00" timeLoss="0.00" rerouteNo="0" devices="tripinfo_83" vType="DEFAULT_VEHTYPE" speedFactor="1.00" vaporized=""/>
    <tripinfo id="96" depart="97.00" departLane="" departPos="0.00" departSpeed="15.15" departDelay="0.00" arrival="177.00" arrivalLane="" arrivalPos="144.73" arrivalSpeed="15.15" duration="80.00" routeLength="1203.32" waitingTime="0.00" waitingCount="0" stopTime="0.00" timeLoss="0.00" rerouteNo="0" devices="tripinfo_96" vType="DEFAULT_VEHTYPE" speedFactor="1.09" vaporized=""/>
    <tripinfo id="118" depart="115.00" departLane="" departPos="0.00" departSpeed="16.35" departDelay="0.00" arrival="178.00" arrivalLane="" arrivalPos="193.01" arrivalSpeed="16.35" duration="63.00" routeLength="1020.61" waitingTime="0.00" waitingCount="0" stopTime="0.00" timeLoss="0.00" rerouteNo="0" devices="tripinfo_118" vType="DEFAULT_VEHTYPE" speedFactor="1.18" vaporized=""/>
    <tripinfo id="58" depart="58.00" departLane="" departPos="0.00" departSpeed="12.49" departDelay="0.00" arrival="183.00" arrivalLane="" arrivalPos="141.20" arrivalSpeed="12.49" duration="125.00" routeLength="1553.85" waitingTime="0.00" waitingCount="0" stopTime="0.00" timeLoss="0.00" rerouteNo="0" devices="tripinfo_58" vType="DEFAULT_VEHTYPE" speedFactor="0.90" vaporized=""/>
    <tripinfo id="70" depart="71.00" departLane="" departPos="0.00" departSpeed="14.45" departDelay="0.00" arrival="183.00" arrivalLane="" arrivalPos="141.01" arrivalSpeed="14.45" duration="112.00" routeLength="1614.73" waitingTime="0.00" waitingCount="0" stopTime="0.00" timeLoss="0.00" rerouteNo="0" devices="tripinfo_70" vType="DEFAULT_VEHTYPE" speedFactor="1.04" vaporized=""/>
    <tripinfo id="127" depart="121.00" departLane="" departPos="0.00" departSpeed="16.01" departDelay="0.00" arrival="191.00" arrivalLane="" arrivalPos="188.90" arrivalSpeed="16.01" duration="70.00" routeLength="1116.70" waitingTime="0.00" waitingCount="0" stopTime="0.00" timeLoss="0.00" rerouteNo="0" devices="tripinfo_127" vType="DEFAULT_VEHTYPE" speedFactor="1.15" vaporized=""/>
    <tripinfo id="14" depart="10.00" departLane="" departPos="0.00" departSpeed="14.54" departDelay="0.00" arrival="194.00" arrivalLane="" arrivalPos="116.98" arrivalSpeed="14.54" duration="184.00" routeLength="2666.70" waitingTime="0.00" waitingCount="0" stopTime="0.00" timeLoss="0.00" rerouteNo="0" devices="tripinfo_14" vType="DEFAULT_VEHTYPE" speedFactor="1.05" vaporized=""/>
    <tripinfo id="29" depart="26.00" departLane="" departPos="0.00" departSpeed="13.18" departDelay="0.00" arrival="194.00" arrivalLane="" arrivalPos="141.01" arrivalSpeed="13.18" duration="168.00" routeLength="2202.09" waitingTime="0.00" waitingCount="0" stopTime="0.00" timeLoss="0.00" rerouteNo="0" devices="tripinfo_29" vType="DEFAULT_VEHTYPE" speedFactor="0.95" vaporized=""/>
    <tripinfo id="160" depart="149.00" departLane="" departPos="0.00" departSpeed="12.64" departDelay="0.00" arrival="194.00" arrivalLane="" arrivalPos="208.50" arrivalSpeed="12.64" duration="45.00" routeLength="565.86" waitingTime="0.00" waitingCount="0" stopTime="0.00" timeLoss="0.00" rerouteNo="0" devices="tripinfo_160" vType="DEFAULT_VEHTYPE" speedFactor="0.91" vaporized=""/>
    <tripinfo id="132" depart="124.00" departLane="" departPos="0.00" departSpeed="14.34" departDelay="0.00" arrival="195.00" arrivalLane="" arrivalPos="85.62" arrivalSpeed="14.34" duration="71.00" routeLength="1017.44" waitingTime="0.00" waitingCount="0" stopTime="0.00" timeLoss="0.00" rerouteNo="0" devices="tripinfo_132" vType="DEFAULT_VEHTYPE" speedFactor="1.03" vaporized=""/>
    <tripinfo id="100" depart="100.00" departLane="" departPos="0.00" departSpeed="15.58" departDelay="0.00" arrival="196.00" arrivalLane="" arrivalPos="98.32" arrivalSpeed="15.58" duration="96.00" routeLength="1485.19" waitingTime="0.00" waitingCount="0" stopTime="0.00" timeLoss="0.31" rerouteNo="0" devices="tripinfo_100" vType="DEFAULT_VEHTYPE" speedFactor="1.12" vaporized=""/>
    <tripinfo id="109" depart="105.00" departLane="" departPos="0.00" departSpeed="14.37" departDelay="0.00" arrival="196.00" arrivalLane="" arrivalPos="132.18" arrivalSpeed="14.37" duration="91.00" routeLength="1275.45" waitingTime="1.30" waitingCount="0" stopTime="0.00" timeLoss="2.01" rerouteNo="0" devices="tripinfo_109" vType="DEFAULT_VEHTYPE" speedFactor="1.03" vaporized=""/>