<?xml version="1.0" encoding="UTF-8"?>

<!-- generated on 2023-04-29 22:41:15 by Eclipse SUMO sumo Version 1.16.0
<configuration xmlns:xsi="http://www.w3.org/2001/XMLSchema-instance" xsi:noNamespaceSchemaLocation="http://sumo.dlr.de/xsd/sumoConfiguration.xsd">

    <input>
        <net-file value="029/../configurations/maps/4corners_neighborhoods.net.xml"/>
        <route-files value="029/Trips_File_029.rou.xml"/>
        <additional-files value="029/../edgedata.add.xml"/>
    </input>

    <output>
        <output-prefix value="029/"/>
        <summary-output value="029/../summary_029.xml"/>
        <tripinfo-output value="029/../tripinfo_029.xml"/>
    </output>

    <time>
        <begin value="0"/>
    </time>

    <processing>
        <route-steps value="200"/>
        <no-internal-links value="False"/>
        <time-to-teleport value="300"/>
        <time-to-teleport.highways value="0"/>
        <eager-insert value="False"/>
    </processing>

    <report>
        <verbose value="true"/>
        <no-warnings value="False"/>
        <log value="029/../iteration_029.sumo.log"/>
        <no-step-log value="true"/>
    </report>

    <mesoscopic>
        <mesosim value="true"/>
        <meso-recheck value="0"/>
    </mesoscopic>

    <random_number>
        <random value="False"/>
    </random_number>

</configuration>
-->

<tripinfos xmlns:xsi="http://www.w3.org/2001/XMLSchema-instance" xsi:noNamespaceSchemaLocation="http://sumo.dlr.de/xsd/tripinfo_file.xsd">
    <tripinfo id="5" depart="5.00" departLane="" departPos="0.00" departSpeed="30.08" departDelay="0.00" arrival="36.00" arrivalLane="" arrivalPos="71.22" arrivalSpeed="15.04" duration="31.00" routeLength="848.93" waitingTime="0.00" waitingCount="0" stopTime="0.00" timeLoss="0.00" rerouteNo="0" devices="tripinfo_5" vType="DEFAULT_VEHTYPE" speedFactor="1.08" vaporized=""/>
    <tripinfo id="15" depart="13.00" departLane="" departPos="0.00" departSpeed="31.19" departDelay="0.00" arrival="53.00" arrivalLane="" arrivalPos="257.55" arrivalSpeed="31.19" duration="40.00" routeLength="1228.81" waitingTime="0.00" waitingCount="0" stopTime="0.00" timeLoss="0.00" rerouteNo="0" devices="tripinfo_15" vType="DEFAULT_VEHTYPE" speedFactor="1.12" vaporized=""/>
    <tripinfo id="19" depart="17.00" departLane="" departPos="0.00" departSpeed="26.15" departDelay="0.00" arrival="57.00" arrivalLane="" arrivalPos="38.78" arrivalSpeed="13.07" duration="40.00" routeLength="969.47" waitingTime="0.35" waitingCount="0" stopTime="0.00" timeLoss="0.95" rerouteNo="0" devices="tripinfo_19" vType="DEFAULT_VEHTYPE" speedFactor="0.94" vaporized=""/>
    <tripinfo id="23" depart="22.00" departLane="" departPos="0.00" departSpeed="28.06" departDelay="0.00" arrival="66.00" arrivalLane="" arrivalPos="294.40" arrivalSpeed="28.06" duration="44.00" routeLength="1225.09" waitingTime="0.00" waitingCount="0" stopTime="0.00" timeLoss="0.00" rerouteNo="0" devices="tripinfo_23" vType="DEFAULT_VEHTYPE" speedFactor="1.01" vaporized=""/>
    <tripinfo id="29" depart="33.00" departLane="" departPos="0.00" departSpeed="13.18" departDelay="0.00" arrival="69.00" arrivalLane="" arrivalPos="257.55" arrivalSpeed="26.36" duration="36.00" routeLength="854.05" waitingTime="0.00" waitingCount="0" stopTime="0.00" timeLoss="0.00" rerouteNo="0" devices="tripinfo_29" vType="DEFAULT_VEHTYPE" speedFactor="0.95" vaporized=""/>
    <tripinfo id="10" depart="8.00" departLane="" departPos="0.00" departSpeed="20.84" departDelay="0.00" arrival="72.00" arrivalLane="" arrivalPos="143.59" arrivalSpeed="20.84" duration="64.00" routeLength="1330.63" waitingTime="0.00" waitingCount="0" stopTime="0.00" timeLoss="0.00" rerouteNo="0" devices="tripinfo_10" vType="DEFAULT_VEHTYPE" speedFactor="0.94" vaporized=""/>
    <tripinfo id="2" depart="1.00" departLane="" departPos="0.00" departSpeed="29.45" departDelay="0.00" arrival="75.00" arrivalLane="" arrivalPos="325.99" arrivalSpeed="23.55" duration="74.00" routeLength="1770.21" waitingTime="1.40" waitingCount="0" stopTime="0.00" timeLoss="3.09" rerouteNo="0" devices="tripinfo_2" vType="DEFAULT_VEHTYPE" speedFactor="1.06" vaporized=""/>
    <tripinfo id="26" depart="30.00" departLane="" departPos="0.00" departSpeed="22.94" departDelay="0.00" arrival="75.00" arrivalLane="" arrivalPos="38.78" arrivalSpeed="11.47" duration="45.00" routeLength="969.47" waitingTime="0.40" waitingCount="0" stopTime="0.00" timeLoss="0.40" rerouteNo="0" devices="tripinfo_26" vType="DEFAULT_VEHTYPE" speedFactor="0.83" vaporized=""/>
    <tripinfo id="42" depart="51.00" departLane="" departPos="0.00" departSpeed="28.62" departDelay="0.00" arrival="75.00" arrivalLane="" arrivalPos="71.22" arrivalSpeed="14.31" duration="24.00" routeLength="612.32" waitingTime="0.00" waitingCount="0" stopTime="0.00" timeLoss="0.00" rerouteNo="0" devices="tripinfo_42" vType="DEFAULT_VEHTYPE" speedFactor="1.03" vaporized=""/>
    <tripinfo id="4" depart="5.00" departLane="" departPos="0.00" departSpeed="22.45" departDelay="0.00" arrival="78.00" arrivalLane="" arrivalPos="38.78" arrivalSpeed="14.03" duration="73.00" routeLength="1325.01" waitingTime="0.00" waitingCount="0" stopTime="0.00" timeLoss="0.00" rerouteNo="0" devices="tripinfo_4" vType="DEFAULT_VEHTYPE" speedFactor="1.01" vaporized=""/>
    <tripinfo id="36" depart="44.00" departLane="" departPos="0.00" departSpeed="13.82" departDelay="0.00" arrival="78.00" arrivalLane="" arrivalPos="294.40" arrivalSpeed="27.64" duration="34.00" routeLength="850.33" waitingTime="0.00" waitingCount="0" stopTime="0.00" timeLoss="0.00" rerouteNo="0" devices="tripinfo_36" vType="DEFAULT_VEHTYPE" speedFactor="0.99" vaporized=""/>
    <tripinfo id="17" depart="15.00" departLane="" departPos="0.00" departSpeed="12.87" departDelay="0.00" arrival="79.00" arrivalLane="" arrivalPos="143.59" arrivalSpeed="20.59" duration="64.00" routeLength="1015.95" waitingTime="0.00" waitingCount="0" stopTime="0.00" timeLoss="0.00" rerouteNo="0" devices="tripinfo_17" vType="DEFAULT_VEHTYPE" speedFactor="0.93" vaporized=""/>
    <tripinfo id="9" depart="7.00" departLane="" departPos="0.00" departSpeed="24.61" departDelay="0.00" arrival="80.00" arrivalLane="" arrivalPos="325.99" arrivalSpeed="19.69" duration="73.00" routeLength="1146.34" waitingTime="0.00" waitingCount="0" stopTime="0.00" timeLoss="0.00" rerouteNo="0" devices="tripinfo_9" vType="DEFAULT_VEHTYPE" speedFactor="0.89" vaporized=""/>
    <tripinfo id="3" depart="2.00" departLane="" departPos="0.00" departSpeed="26.06" departDelay="0.00" arrival="81.00" arrivalLane="" arrivalPos="806.12" arrivalSpeed="20.85" duration="79.00" routeLength="1738.65" waitingTime="0.00" waitingCount="0" stopTime="0.00" timeLoss="0.00" rerouteNo="0" devices="tripinfo_3" vType="DEFAULT_VEHTYPE" speedFactor="0.94" vaporized=""/>
    <tripinfo id="12" depart="12.00" departLane="" departPos="0.00" departSpeed="24.24" departDelay="0.00" arrival="81.00" arrivalLane="" arrivalPos="143.59" arrivalSpeed="20.59" duration="69.00" routeLength="1532.30" waitingTime="0.99" waitingCount="0" stopTime="0.00" timeLoss="4.83" rerouteNo="0" devices="tripinfo_12" vType="DEFAULT_VEHTYPE" speedFactor="1.09" vaporized=""/>
    <tripinfo id="14" depart="13.00" departLane="" departPos="0.00" departSpeed="21.96" departDelay="0.00" arrival="81.00" arrivalLane="" arrivalPos="38.78" arrivalSpeed="14.54" duration="68.00" routeLength="1632.15" waitingTime="0.00" waitingCount="0" stopTime="0.00" timeLoss="0.28" rerouteNo="0" devices="tripinfo_14" vType="DEFAULT_VEHTYPE" speedFactor="1.05" vaporized=""/>
    <tripinfo id="6" depart="5.00" departLane="" departPos="0.00" departSpeed="14.31" departDelay="0.00" arrival="82.00" arrivalLane="" arrivalPos="325.99" arrivalSpeed="19.69" duration="77.00" routeLength="1775.73" waitingTime="0.00" waitingCount="0" stopTime="0.00" timeLoss="2.32" rerouteNo="0" devices="tripinfo_6" vType="DEFAULT_VEHTYPE" speedFactor="1.03" vaporized=""/>
    <tripinfo id="21" depart="19.00" departLane="" departPos="0.00" departSpeed="32.17" departDelay="0.00" arrival="82.00" arrivalLane="" arrivalPos="143.59" arrivalSpeed="20.59" duration="63.00" routeLength="1010.43" waitingTime="1.28" waitingCount="0" stopTime="0.00" timeLoss="13.26" rerouteNo="0" devices="tripinfo_21" vType="DEFAULT_VEHTYPE" speedFactor="1.16" vaporized=""/>
    <tripinfo id="28" depart="31.00" departLane="" departPos="0.00" departSpeed="12.74" departDelay="0.00" arrival="86.00" arrivalLane="" arrivalPos="257.55" arrivalSpeed="25.48" duration="55.00" routeLength="1329.61" waitingTime="0.00" waitingCount="0" stopTime="0.00" timeLoss="0.00" rerouteNo="0" devices="tripinfo_28" vType="DEFAULT_VEHTYPE" speedFactor="0.92" vaporized=""/>
    <tripinfo id="47" depart="57.00" departLane="" departPos="0.00" departSpeed="15.11" departDelay="0.00" arrival="88.00" arrivalLane="" arrivalPos="257.55" arrivalSpeed="30.22" duration="31.00" routeLength="854.05" waitingTime="0.00" waitingCount="0" stopTime="0.00" timeLoss="0.00" rerouteNo="0" devices="tripinfo_47" vType="DEFAULT_VEHTYPE" speedFactor="1.09" vaporized=""/>
    <tripinfo id="13" depart="12.00" departLane="" departPos="0.00" departSpeed="21.18" departDelay="0.00" arrival="91.00" arrivalLane="" arrivalPos="38.78" arrivalSpeed="14.26" duration="79.00" routeLength="1325.01" waitingTime="0.00" waitingCount="0" stopTime="0.00" timeLoss="6.44" rerouteNo="0" devices="tripinfo_13" vType="DEFAULT_VEHTYPE" speedFactor="1.03" vaporized=""/>
    <tripinfo id="22" depart="21.00" departLane="" departPos="0.00" departSpeed="22.62" departDelay="0.00" arrival="91.00" arrivalLane="" arrivalPos="294.40" arrivalSpeed="28.28" duration="70.00" routeLength="1673.77" waitingTime="0.71" waitingCount="0" stopTime="0.00" timeLoss="2.14" rerouteNo="0" devices="tripinfo_22" vType="DEFAULT_VEHTYPE" speedFactor="1.02" vaporized=""/>
    <tripinfo id="7" depart="7.00" departLane="" departPos="0.00" departSpeed="11.54" departDelay="0.00" arrival="94.00" arrivalLane="" arrivalPos="806.12" arrivalSpeed="18.46" duration="87.00" routeLength="1295.54" waitingTime="0.00" waitingCount="0" stopTime="0.00" timeLoss="0.00" rerouteNo="0" devices="tripinfo_7" vType="DEFAULT_VEHTYPE" speedFactor="0.83" vaporized=""/>
    <tripinfo id="38" depart="49.00" departLane="" departPos="0.00" departSpeed="27.04" departDelay="0.00" arrival="95.00" arrivalLane="" arrivalPos="257.55" arrivalSpeed="27.04" duration="46.00" routeLength="1228.81" waitingTime="0.00" waitingCount="0" stopTime="0.00" timeLoss="0.00" rerouteNo="0" devices="tripinfo_38" vType="DEFAULT_VEHTYPE" speedFactor="0.97" vaporized=""/>
    <tripinfo id="16" depart="14.00" departLane="" departPos="0.00" departSpeed="22.02" departDelay="0.00" arrival="97.00" arrivalLane="" arrivalPos="257.55" arrivalSpeed="27.53" duration="83.00" routeLength="1753.33" waitingTime="0.00" waitingCount="0" stopTime="0.00" timeLoss="0.00" rerouteNo="0" devices="tripinfo_16" vType="DEFAULT_VEHTYPE" speedFactor="0.99" vaporized=""/>
    <tripinfo id="31" depart="35.00" departLane="" departPos="0.00" departSpeed="25.87" departDelay="0.00" arrival="97.00" arrivalLane="" arrivalPos="143.59" arrivalSpeed="20.69" duration="62.00" routeLength="1010.43" waitingTime="0.00" waitingCount="0" stopTime="0.00" timeLoss="0.00" rerouteNo="0" devices="tripinfo_31" vType="DEFAULT_VEHTYPE" speedFactor="0.93" vaporized=""/>
    <tripinfo id="32" depart="37.00" departLane="" departPos="0.00" departSpeed="32.74" departDelay="0.00" arrival="99.00" arrivalLane="" arrivalPos="143.59" arrivalSpeed="26.19" duration="62.00" routeLength="1790.95" waitingTime="0.00" waitingCount="0" stopTime="0.00" timeLoss="0.00" rerouteNo="0" devices="tripinfo_32" vType="DEFAULT_VEHTYPE" speedFactor="1.18" vaporized=""/>
    <tripinfo id="44" depart="54.00" departLane="" departPos="0.00" departSpeed="30.33" departDelay="0.00" arrival="99.00" arrivalLane="" arrivalPos="38.78" arrivalSpeed="15.17" duration="45.00" routeLength="1301.36" waitingTime="0.00" waitingCount="0" stopTime="0.00" timeLoss="0.00" rerouteNo="0" devices="tripinfo_44" vType="DEFAULT_VEHTYPE" speedFactor="1.09" vaporized=""/>
    <tripinfo id="8" depart="7.00" departLane="" departPos="0.00" departSpeed="23.24" departDelay="0.00" arrival="100.00" arrivalLane="" arrivalPos="100.00" arrivalSpeed="29.05" duration="93.00" routeLength="2063.94" waitingTime="0.00" waitingCount="0" stopTime="0.00" timeLoss="0.68" rerouteNo="0" devices="tripinfo_8" vType="DEFAULT_VEHTYPE" speedFactor="1.05" vaporized=""/>
    <tripinfo id="18" depart="16.00" departLane="" departPos="0.00" departSpeed="24.40" departDelay="0.00" arrival="100.00" arrivalLane="" arrivalPos="806.12" arrivalSpeed="19.52" duration="84.00" routeLength="1738.65" waitingTime="0.00" waitingCount="0" stopTime="0.00" timeLoss="0.00" rerouteNo="0" devices="tripinfo_18" vType="DEFAULT_VEHTYPE" speedFactor="0.88" vaporized=""/>
    <tripinfo id="24" depart="26.00" departLane="" departPos="0.00" departSpeed="27.09" departDelay="0.00" arrival="102.00" arrivalLane="" arrivalPos="806.12" arrivalSpeed="19.52" duration="76.00" routeLength="1290.02" waitingTime="0.00" waitingCount="0" stopTime="0.00" timeLoss="3.96" rerouteNo="0" devices="tripinfo_24" vType="DEFAULT_VEHTYPE" speedFactor="0.97" vaporized=""/>
    <tripinfo id="30" depart="33.00" departLane="" departPos="0.00" departSpeed="25.15" departDelay="0.00" arrival="106.00" arrivalLane="" arrivalPos="294.40" arrivalSpeed="31.44" duration="73.00" routeLength="1580.63" waitingTime="0.00" waitingCount="0" stopTime="0.00" timeLoss="0.00" rerouteNo="0" devices="tripinfo_30" vType="DEFAULT_VEHTYPE" speedFactor="1.13" vaporized=""/>
    <tripinfo id="25" depart="29.00" departLane="" departPos="0.00" departSpeed="19.77" departDelay="0.00" arrival="107.00" arrivalLane="" arrivalPos="325.99" arrivalSpeed="19.77" duration="78.00" routeLength="1534.17" waitingTime="0.00" waitingCount="0" stopTime="0.00" timeLoss="0.00" rerouteNo="0" devices="tripinfo_25" vType="DEFAULT_VEHTYPE" speedFactor="0.89" vaporized=""/>
    <tripinfo id="20" depart="18.00" departLane="" departPos="0.00" departSpeed="20.80" departDelay="0.00" arrival="108.00" arrivalLane="" arrivalPos="100.00" arrivalSpeed="26.01" duration="90.00" routeLength="1786.97" waitingTime="0.41" waitingCount="0" stopTime="0.00" timeLoss="0.41" rerouteNo="0" devices="tripinfo_20" vType="DEFAULT_VEHTYPE" speedFactor="0.94" vaporized=""/>
    <tripinfo id="40" depart="49.00" departLane="" departPos="0.00" departSpeed="24.49" departDelay="0.00" arrival="108.00" arrivalLane="" arrivalPos="257.55" arrivalSpeed="30.62" duration="59.00" routeLength="1144.15" waitingTime="0.00" waitingCount="0" stopTime="0.00" timeLoss="0.00" rerouteNo="0" devices="tripinfo_40" vType="DEFAULT_VEHTYPE" speedFactor="1.10" vaporized=""/>
    <tripinfo id="39" depart="49.00" departLane="" departPos="0.00" departSpeed="32.77" departDelay="0.00" arrival="109.00" arrivalLane="" arrivalPos="806.12" arrivalSpeed="26.21" duration="60.00" routeLength="1290.02" waitingTime="0.00" waitingCount="0" stopTime="0.00" timeLoss="0.00" rerouteNo="0" devices="tripinfo_39" vType="DEFAULT_VEHTYPE" speedFactor="1.18" vaporized=""/>
    <tripinfo id="27" depart="30.00" departLane="" departPos="0.00" departSpeed="19.39" departDelay="0.00" arrival="111.00" arrivalLane="" arrivalPos="38.78" arrivalSpeed="12.12" duration="81.00" routeLength="1632.15" waitingTime="0.00" waitingCount="0" stopTime="0.00" timeLoss="0.00" rerouteNo="0" devices="tripinfo_27" vType="DEFAULT_VEHTYPE" speedFactor="0.87" vaporized=""/>
    <tripinfo id="37" depart="44.00" departLane="" departPos="0.00" departSpeed="22.66" departDelay="0.00" arrival="112.00" arrivalLane="" arrivalPos="294.40" arrivalSpeed="28.33" duration="68.00" routeLength="1673.77" waitingTime="0.00" waitingCount="0" stopTime="0.00" timeLoss="0.00" rerouteNo="0" devices="tripinfo_37" vType="DEFAULT_VEHTYPE" speedFactor="1.02" vaporized=""/>
    <tripinfo id="69" depart="82.00" departLane="" departPos="0.00" departSpeed="12.70" departDelay="0.00" arrival="112.00" arrivalLane="" arrivalPos="71.22" arrivalSpeed="12.70" duration="30.00" routeLength="617.84" waitingTime="0.48" waitingCount="0" stopTime="0.00" timeLoss="0.48" rerouteNo="0" devices="tripinfo_69" vType="DEFAULT_VEHTYPE" speedFactor="0.91" vaporized=""/>
    <tripinfo id="33" depart="38.00" departLane="" departPos="0.00" departSpeed="25.65" departDelay="0.00" arrival="114.00" arrivalLane="" arrivalPos="806.12" arrivalSpeed="25.65" duration="76.00" routeLength="1811.89" waitingTime="0.00" waitingCount="0" stopTime="0.00" timeLoss="4.46" rerouteNo="0" devices="tripinfo_33" vType="DEFAULT_VEHTYPE" speedFactor="1.15" vaporized=""/>
    <tripinfo id="34" depart="40.00" departLane="" departPos="0.00" departSpeed="22.34" departDelay="0.00" arrival="114.00" arrivalLane="" arrivalPos="38.78" arrivalSpeed="13.96" duration="74.00" routeLength="1325.01" waitingTime="0.00" waitingCount="0" stopTime="0.00" timeLoss="0.00" rerouteNo="0" devices="tripinfo_34" vType="DEFAULT_VEHTYPE" speedFactor="1.01" vaporized=""/>
    <tripinfo id="43" depart="54.00" departLane="" departPos="0.00" departSpeed="26.59" departDelay="0.00" arrival="114.00" arrivalLane="" arrivalPos="143.59" arrivalSpeed="21.27" duration="60.00" routeLength="1010.43" waitingTime="0.00" waitingCount="0" stopTime="0.00" timeLoss="0.00" rerouteNo="0" devices="tripinfo_43" vType="DEFAULT_VEHTYPE" speedFactor="0.96" vaporized=""/>
    <tripinfo id="57" depart="67.00" departLane="" departPos="0.00" departSpeed="13.83" departDelay="0.00" arrival="117.00" arrivalLane="" arrivalPos="257.55" arrivalSpeed="27.67" duration="50.00" routeLength="1329.61" waitingTime="0.00" waitingCount="0" stopTime="0.00" timeLoss="0.00" rerouteNo="0" devices="tripinfo_57" vType="DEFAULT_VEHTYPE" speedFactor="1.00" vaporized=""/>
    <tripinfo id="63" depart="77.00" departLane="" departPos="0.00" departSpeed="31.09" departDelay="0.00" arrival="117.00" arrivalLane="" arrivalPos="294.40" arrivalSpeed="31.09" duration="40.00" routeLength="1225.09" waitingTime="0.00" waitingCount="0" stopTime="0.00" timeLoss="0.48" rerouteNo="0" devices="tripinfo_63" vType="DEFAULT_VEHTYPE" speedFactor="1.12" vaporized=""/>
    <tripinfo id="55" depart="66.00" departLane="" departPos="0.00" departSpeed="30.44" departDelay="0.00" arrival="119.00" arrivalLane="" arrivalPos="143.59" arrivalSpeed="24.35" duration="53.00" routeLength="1010.43" waitingTime="0.00" waitingCount="0" stopTime="0.00" timeLoss="0.00" rerouteNo="0" devices="tripinfo_55" vType="DEFAULT_VEHTYPE" speedFactor="1.10" vaporized=""/>
    <tripinfo id="66" depart="80.00" departLane="" departPos="0.00" departSpeed="13.02" departDelay="0.00" arrival="119.00" arrivalLane="" arrivalPos="100.00" arrivalSpeed="26.05" duration="39.00" routeLength="958.05" waitingTime="0.00" waitingCount="0" stopTime="0.00" timeLoss="0.00" rerouteNo="0" devices="tripinfo_66" vType="DEFAULT_VEHTYPE" speedFactor="0.94" vaporized=""/>
    <tripinfo id="11" depart="10.00" departLane="" departPos="0.00" departSpeed="19.04" departDelay="0.00" arrival="122.00" arrivalLane="" arrivalPos="100.00" arrivalSpeed="23.80" duration="112.00" routeLength="2063.94" waitingTime="0.00" waitingCount="0" stopTime="0.00" timeLoss="0.00" rerouteNo="0" devices="tripinfo_11" vType="DEFAULT_VEHTYPE" speedFactor="0.86" vaporized=""/>
    <tripinfo id="48" depart="60.00" departLane="" departPos="0.00" departSpeed="22.16" departDelay="0.00" arrival="122.00" arrivalLane="" arrivalPos="38.78" arrivalSpeed="13.85" duration="62.00" routeLength="1418.15" waitingTime="0.00" waitingCount="0" stopTime="0.00" timeLoss="0.00" rerouteNo="0" devices="tripinfo_48" vType="DEFAULT_VEHTYPE" speedFactor="1.00" vaporized=""/>
    <tripinfo id="77" depart="92.00" departLane="" departPos="0.00" departSpeed="13.68" departDelay="0.00" arrival="126.00" arrivalLane="" arrivalPos="257.55" arrivalSpeed="27.36" duration="34.00" routeLength="854.05" waitingTime="0.00" waitingCount="0" stopTime="0.00" timeLoss="0.00" rerouteNo="0" devices="tripinfo_77" vType="DEFAULT_VEHTYPE" speedFactor="0.98" vaporized=""/>
    <tripinfo id="81" depart="96.00" departLane="" departPos="0.00" departSpeed="15.10" departDelay="0.00" arrival="128.00" arrivalLane="" arrivalPos="257.55" arrivalSpeed="27.36" duration="32.00" routeLength="854.05" waitingTime="0.00" waitingCount="0" stopTime="0.00" timeLoss="0.58" rerouteNo="0" devices="tripinfo_81" vType="DEFAULT_VEHTYPE" speedFactor="1.09" vaporized=""/>
    <tripinfo id="46" depart="56.00" departLane="" departPos="0.00" departSpeed="14.49" departDelay="0.00" arrival="129.00" arrivalLane="" arrivalPos="325.99" arrivalSpeed="23.18" duration="73.00" routeLength="1775.73" waitingTime="0.00" waitingCount="0" stopTime="0.00" timeLoss="0.00" rerouteNo="0" devices="tripinfo_46" vType="DEFAULT_VEHTYPE" speedFactor="1.04" vaporized=""/>
    <tripinfo id="75" depart="87.00" departLane="" departPos="0.00" departSpeed="29.33" departDelay="0.00" arrival="129.00" arrivalLane="" arrivalPos="294.40" arrivalSpeed="29.33" duration="42.00" routeLength="1225.09" waitingTime="0.00" waitingCount="0" stopTime="0.00" timeLoss="0.00" rerouteNo="0" devices="tripinfo_75" vType="DEFAULT_VEHTYPE" speedFactor="1.06" vaporized=""/>
    <tripinfo id="85" depart="101.00" departLane="" departPos="0.00" departSpeed="13.43" departDelay="0.00" arrival="129.00" arrivalLane="" arrivalPos="71.22" arrivalSpeed="13.43" duration="28.00" routeLength="617.84" waitingTime="0.00" waitingCount="0" stopTime="0.00" timeLoss="0.00" rerouteNo="0" devices="tripinfo_85" vType="DEFAULT_VEHTYPE" speedFactor="0.97" vaporized=""/>
    <tripinfo id="35" depart="41.00" departLane="" departPos="0.00" departSpeed="20.24" departDelay="0.00" arrival="131.00" arrivalLane="" arrivalPos="71.22" arrivalSpeed="14.22" duration="90.00" routeLength="1703.70" waitingTime="0.54" waitingCount="0" stopTime="0.00" timeLoss="16.33" rerouteNo="0" devices="tripinfo_35" vType="DEFAULT_VEHTYPE" speedFactor="1.17" vaporized=""/>
    <tripinfo id="67" depart="81.00" departLane="" departPos="0.00" departSpeed="24.51" departDelay="0.00" arrival="131.00" arrivalLane="" arrivalPos="100.00" arrivalSpeed="24.51" duration="50.00" routeLength="1209.17" waitingTime="0.00" waitingCount="0" stopTime="0.00" timeLoss="0.00" rerouteNo="0" devices="tripinfo_67" vType="DEFAULT_VEHTYPE" speedFactor="0.88" vaporized=""/>
    <tripinfo id="72" depart="84.00" departLane="" departPos="0.00" departSpeed="28.42" departDelay="0.00" arrival="131.00" arrivalLane="" arrivalPos="257.55" arrivalSpeed="28.42" duration="47.00" routeLength="1324.09" waitingTime="0.00" waitingCount="0" stopTime="0.00" timeLoss="0.26" rerouteNo="0" devices="tripinfo_72" vType="DEFAULT_VEHTYPE" speedFactor="1.02" vaporized=""/>
    <tripinfo id="53" depart="64.00" departLane="" departPos="0.00" departSpeed="25.97" departDelay="0.00" arrival="132.00" arrivalLane="" arrivalPos="100.00" arrivalSpeed="24.51" duration="68.00" routeLength="1606.44" waitingTime="0.15" waitingCount="0" stopTime="0.00" timeLoss="2.84" rerouteNo="0" devices="tripinfo_53" vType="DEFAULT_VEHTYPE" speedFactor="1.17" vaporized=""/>
    <tripinfo id="60" depart="70.00" departLane="" departPos="0.00" departSpeed="22.74" departDelay="0.00" arrival="134.00" arrivalLane="" arrivalPos="71.22" arrivalSpeed="14.22" duration="64.00" routeLength="1246.20" waitingTime="0.06" waitingCount="0" stopTime="0.00" timeLoss="0.08" rerouteNo="0" devices="tripinfo_60" vType="DEFAULT_VEHTYPE" speedFactor="1.02" vaporized=""/>
    <tripinfo id="50" depart="63.00" departLane="" departPos="0.00" departSpeed="12.18" departDelay="0.00" arrival="135.00" arrivalLane="" arrivalPos="806.12" arrivalSpeed="19.48" duration="72.00" routeLength="1363.89" waitingTime="0.00" waitingCount="0" stopTime="0.00" timeLoss="0.00" rerouteNo="0" devices="tripinfo_50" vType="DEFAULT_VEHTYPE" speedFactor="0.88" vaporized=""/>
    <tripinfo id="65" depart="80.00" departLane="" departPos="0.00" departSpeed="13.71" departDelay="0.00" arrival="135.00" arrivalLane="" arrivalPos="143.59" arrivalSpeed="21.93" duration="55.00" routeLength="1084.30" waitingTime="0.00" waitingCount="0" stopTime="0.00" timeLoss="3.59" rerouteNo="0" devices="tripinfo_65" vType="DEFAULT_VEHTYPE" speedFactor="0.99" vaporized=""/>
    <tripinfo id="49" depart="62.00" departLane="" departPos="0.00" departSpeed="20.01" departDelay="0.00" arrival="139.00" arrivalLane="" arrivalPos="325.99" arrivalSpeed="20.01" duration="77.00" routeLength="1534.17" waitingTime="0.00" waitingCount="0" stopTime="0.00" timeLoss="0.00" rerouteNo="0" devices="tripinfo_49" vType="DEFAULT_VEHTYPE" speedFactor="0.90" vaporized=""/>
    <tripinfo id="64" depart="77.00" departLane="" departPos="0.00" departSpeed="14.11" departDelay="0.00" arrival="139.00" arrivalLane="" arrivalPos="806.12" arrivalSpeed="22.57" duration="62.00" routeLength="1363.89" waitingTime="0.00" waitingCount="0" stopTime="0.00" timeLoss="0.00" rerouteNo="0" devices="tripinfo_64" vType="DEFAULT_VEHTYPE" speedFactor="1.02" vaporized=""/>
    <tripinfo id="59" depart="69.00" departLane="" departPos="0.00" departSpeed="25.39" departDelay="0.00" arrival="141.00" arrivalLane="" arrivalPos="294.40" arrivalSpeed="31.74" duration="72.00" routeLength="1580.63" waitingTime="0.00" waitingCount="0" stopTime="0.00" timeLoss="0.00" rerouteNo="0" devices="tripinfo_59" vType="DEFAULT_VEHTYPE" speedFactor="1.14" vaporized=""/>
    <tripinfo id="61" depart="72.00" departLane="" departPos="0.00" departSpeed="26.93" departDelay="0.00" arrival="141.00" arrivalLane="" arrivalPos="325.99" arrivalSpeed="20.01" duration="69.00" routeLength="1146.34" waitingTime="0.49" waitingCount="0" stopTime="0.00" timeLoss="1.65" rerouteNo="0" devices="tripinfo_61" vType="DEFAULT_VEHTYPE" speedFactor="0.97" vaporized=""/>
    <tripinfo id="56" depart="67.00" departLane="" departPos="0.00" departSpeed="22.29" departDelay="0.00" arrival="142.00" arrivalLane="" arrivalPos="325.99" arrivalSpeed="22.29" duration="75.00" routeLength="1534.17" waitingTime="0.00" waitingCount="0" stopTime="0.00" timeLoss="5.81" rerouteNo="0" devices="tripinfo_56" vType="DEFAULT_VEHTYPE" speedFactor="1.00" vaporized=""/>
    <tripinfo id="41" depart="50.00" departLane="" departPos="0.00" departSpeed="20.01" departDelay="0.00" arrival="143.00" arrivalLane="" arrivalPos="100.00" arrivalSpeed="25.02" duration="93.00" routeLength="1786.97" waitingTime="0.00" waitingCount="0" stopTime="0.00" timeLoss="0.00" rerouteNo="0" devices="tripinfo_41" vType="DEFAULT_VEHTYPE" speedFactor="0.90" vaporized=""/>
    <tripinfo id="90" depart="109.00" departLane="" departPos="0.00" departSpeed="13.99" departDelay="0.00" arrival="143.00" arrivalLane="" arrivalPos="257.55" arrivalSpeed="27.97" duration="34.00" routeLength="854.05" waitingTime="0.00" waitingCount="0" stopTime="0.00" timeLoss="0.00" rerouteNo="0" devices="tripinfo_90" vType="DEFAULT_VEHTYPE" speedFactor="1.01" vaporized=""/>
    <tripinfo id="54" depart="65.00" departLane="" departPos="0.00" departSpeed="14.12" departDelay="0.00" arrival="144.00" arrivalLane="" arrivalPos="325.99" arrivalSpeed="22.29" duration="79.00" routeLength="1775.73" waitingTime="0.71" waitingCount="0" stopTime="0.00" timeLoss="3.21" rerouteNo="0" devices="tripinfo_54" vType="DEFAULT_VEHTYPE" speedFactor="1.02" vaporized=""/>
    <tripinfo id="79" depart="95.00" departLane="" departPos="0.00" departSpeed="13.64" departDelay="0.00" arrival="146.00" arrivalLane="" arrivalPos="257.55" arrivalSpeed="27.28" duration="51.00" routeLength="1329.61" waitingTime="0.00" waitingCount="0" stopTime="0.00" timeLoss="0.00" rerouteNo="0" devices="tripinfo_79" vType="DEFAULT_VEHTYPE" speedFactor="0.98" vaporized=""/>
    <tripinfo id="104" depart="120.00" departLane="" departPos="0.00" departSpeed="26.89" departDelay="0.00" arrival="146.00" arrivalLane="" arrivalPos="71.22" arrivalSpeed="13.45" duration="26.00" routeLength="612.32" waitingTime="0.00" waitingCount="0" stopTime="0.00" timeLoss="0.00" rerouteNo="0" devices="tripinfo_104" vType="DEFAULT_VEHTYPE" speedFactor="0.97" vaporized=""/>
    <tripinfo id="58" depart="68.00" departLane="" departPos="0.00" departSpeed="11.54" departDelay="0.00" arrival="148.00" arrivalLane="" arrivalPos="806.12" arrivalSpeed="19.97" duration="80.00" routeLength="1295.54" waitingTime="0.00" waitingCount="0" stopTime="0.00" timeLoss="0.31" rerouteNo="0" devices="tripinfo_58" vType="DEFAULT_VEHTYPE" speedFactor="0.90" vaporized=""/>
    <tripinfo id="45" depart="56.00" departLane="" departPos="0.00" departSpeed="23.06" departDelay="0.00" arrival="149.00" arrivalLane="" arrivalPos="257.55" arrivalSpeed="28.83" duration="93.00" routeLength="2030.30" waitingTime="0.00" waitingCount="0" stopTime="0.00" timeLoss="1.12" rerouteNo="0" devices="tripinfo_45" vType="DEFAULT_VEHTYPE" speedFactor="1.04" vaporized=""/>
    <tripinfo id="86" depart="102.00" departLane="" departPos="0.00" departSpeed="15.94" departDelay="0.00" arrival="149.00" arrivalLane="" arrivalPos="143.59" arrivalSpeed="25.50" duration="47.00" routeLength="1084.30" waitingTime="1.49" waitingCount="0" stopTime="0.00" timeLoss="2.96" rerouteNo="0" devices="tripinfo_86" vType="DEFAULT_VEHTYPE" speedFactor="1.15" vaporized=""/>
    <tripinfo id="106" depart="121.00" departLane="" departPos="0.00" departSpeed="24.83" departDelay="0.00" arrival="149.00" arrivalLane="" arrivalPos="71.22" arrivalSpeed="12.42" duration="28.00" routeLength="612.32" waitingTime="0.00" waitingCount="0" stopTime="0.00" timeLoss="0.00" rerouteNo="0" devices="tripinfo_106" vType="DEFAULT_VEHTYPE" speedFactor="0.89" vaporized=""/>
    <tripinfo id="108" depart="123.00" departLane="" departPos="0.00" departSpeed="28.16" departDelay="0.00" arrival="151.00" arrivalLane="" arrivalPos="71.22" arrivalSpeed="12.41" duration="28.00" routeLength="612.32" waitingTime="1.23" waitingCount="0" stopTime="0.00" timeLoss="2.93" rerouteNo="0" devices="tripinfo_108" vType="DEFAULT_VEHTYPE" speedFactor="1.01" vaporized=""/>