<?xml version="1.0" encoding="UTF-8"?>

<!-- generated on 2023-04-28 16:36:18 by Eclipse SUMO sumo Version 1.16.0
<configuration xmlns:xsi="http://www.w3.org/2001/XMLSchema-instance" xsi:noNamespaceSchemaLocation="http://sumo.dlr.de/xsd/sumoConfiguration.xsd">

    <input>
        <net-file value="023/../configurations/maps/Random_English.net.xml"/>
        <route-files value="023/Trips_File_023.rou.xml"/>
        <additional-files value="023/../edgedata.add.xml"/>
    </input>

    <output>
        <output-prefix value="023/"/>
        <summary-output value="023/../summary_023.xml"/>
        <tripinfo-output value="023/../tripinfo_023.xml"/>
    </output>

    <time>
        <begin value="0"/>
    </time>

    <processing>
        <route-steps value="200"/>
        <no-internal-links value="False"/>
        <time-to-teleport value="300"/>
        <time-to-teleport.highways value="0"/>
        <eager-insert value="False"/>
    </processing>

    <report>
        <verbose value="true"/>
        <no-warnings value="False"/>
        <log value="023/../iteration_023.sumo.log"/>
        <no-step-log value="true"/>
    </report>

    <mesoscopic>
        <mesosim value="true"/>
        <meso-recheck value="0"/>
    </mesoscopic>

    <random_number>
        <random value="False"/>
    </random_number>

</configuration>
-->

<tripinfos xmlns:xsi="http://www.w3.org/2001/XMLSchema-instance" xsi:noNamespaceSchemaLocation="http://sumo.dlr.de/xsd/tripinfo_file.xsd">
    <tripinfo id="4" depart="1.00" departLane="" departPos="0.00" departSpeed="14.03" departDelay="0.00" arrival="35.00" arrivalLane="" arrivalPos="101.06" arrivalSpeed="14.03" duration="34.00" routeLength="463.25" waitingTime="0.00" waitingCount="0" stopTime="0.00" timeLoss="0.00" rerouteNo="0" devices="tripinfo_4" vType="DEFAULT_VEHTYPE" speedFactor="1.01" vaporized=""/>
    <tripinfo id="21" depart="14.00" departLane="" departPos="0.00" departSpeed="16.09" departDelay="0.00" arrival="61.00" arrivalLane="" arrivalPos="209.36" arrivalSpeed="16.09" duration="47.00" routeLength="752.66" waitingTime="0.00" waitingCount="0" stopTime="0.00" timeLoss="0.00" rerouteNo="0" devices="tripinfo_21" vType="DEFAULT_VEHTYPE" speedFactor="1.16" vaporized=""/>
    <tripinfo id="27" depart="18.00" departLane="" departPos="0.00" departSpeed="12.12" departDelay="0.00" arrival="61.00" arrivalLane="" arrivalPos="146.86" arrivalSpeed="12.12" duration="43.00" routeLength="511.98" waitingTime="0.00" waitingCount="0" stopTime="0.00" timeLoss="0.00" rerouteNo="0" devices="tripinfo_27" vType="DEFAULT_VEHTYPE" speedFactor="0.87" vaporized=""/>
    <tripinfo id="16" depart="10.00" departLane="" departPos="0.00" departSpeed="13.77" departDelay="0.00" arrival="69.00" arrivalLane="" arrivalPos="203.37" arrivalSpeed="13.77" duration="59.00" routeLength="802.81" waitingTime="0.00" waitingCount="0" stopTime="0.00" timeLoss="0.00" rerouteNo="0" devices="tripinfo_16" vType="DEFAULT_VEHTYPE" speedFactor="0.99" vaporized=""/>
    <tripinfo id="15" depart="9.00" departLane="" departPos="0.00" departSpeed="15.60" departDelay="0.00" arrival="83.00" arrivalLane="" arrivalPos="121.63" arrivalSpeed="15.60" duration="74.00" routeLength="1147.91" waitingTime="0.00" waitingCount="0" stopTime="0.00" timeLoss="0.00" rerouteNo="0" devices="tripinfo_15" vType="DEFAULT_VEHTYPE" speedFactor="1.12" vaporized=""/>
    <tripinfo id="53" depart="48.00" departLane="" departPos="0.00" departSpeed="16.24" departDelay="0.00" arrival="83.00" arrivalLane="" arrivalPos="124.36" arrivalSpeed="16.23" duration="35.00" routeLength="556.44" waitingTime="0.00" waitingCount="0" stopTime="0.00" timeLoss="0.00" rerouteNo="0" devices="tripinfo_53" vType="DEFAULT_VEHTYPE" speedFactor="1.17" vaporized=""/>
    <tripinfo id="13" depart="9.00" departLane="" departPos="0.00" departSpeed="14.26" departDelay="0.00" arrival="92.00" arrivalLane="" arrivalPos="129.32" arrivalSpeed="14.25" duration="83.00" routeLength="1182.66" waitingTime="0.00" waitingCount="0" stopTime="0.00" timeLoss="0.00" rerouteNo="0" devices="tripinfo_13" vType="DEFAULT_VEHTYPE" speedFactor="1.03" vaporized=""/>
    <tripinfo id="35" depart="29.00" departLane="" departPos="0.00" departSpeed="16.28" departDelay="0.00" arrival="94.00" arrivalLane="" arrivalPos="190.25" arrivalSpeed="16.28" duration="65.00" routeLength="1053.92" waitingTime="0.00" waitingCount="0" stopTime="0.00" timeLoss="0.00" rerouteNo="0" devices="tripinfo_35" vType="DEFAULT_VEHTYPE" speedFactor="1.17" vaporized=""/>
    <tripinfo id="20" depart="14.00" departLane="" departPos="0.00" departSpeed="13.00" departDelay="0.00" arrival="96.00" arrivalLane="" arrivalPos="199.02" arrivalSpeed="13.00" duration="82.00" routeLength="1065.82" waitingTime="0.00" waitingCount="0" stopTime="0.00" timeLoss="0.00" rerouteNo="0" devices="tripinfo_20" vType="DEFAULT_VEHTYPE" speedFactor="0.94" vaporized=""/>
    <tripinfo id="62" depart="54.00" departLane="" departPos="0.00" departSpeed="15.04" departDelay="0.00" arrival="114.00" arrivalLane="" arrivalPos="202.07" arrivalSpeed="15.03" duration="60.00" routeLength="895.65" waitingTime="0.00" waitingCount="0" stopTime="0.00" timeLoss="0.00" rerouteNo="0" devices="tripinfo_62" vType="DEFAULT_VEHTYPE" speedFactor="1.08" vaporized=""/>
    <tripinfo id="32" depart="24.00" departLane="" departPos="0.00" departSpeed="16.37" departDelay="0.00" arrival="116.00" arrivalLane="" arrivalPos="132.18" arrivalSpeed="16.37" duration="92.00" routeLength="1490.34" waitingTime="0.00" waitingCount="0" stopTime="0.00" timeLoss="0.00" rerouteNo="0" devices="tripinfo_32" vType="DEFAULT_VEHTYPE" speedFactor="1.18" vaporized=""/>
    <tripinfo id="47" depart="43.00" departLane="" departPos="0.00" departSpeed="15.11" departDelay="0.00" arrival="116.00" arrivalLane="" arrivalPos="132.83" arrivalSpeed="15.11" duration="73.00" routeLength="1089.20" waitingTime="0.00" waitingCount="0" stopTime="0.00" timeLoss="0.00" rerouteNo="0" devices="tripinfo_47" vType="DEFAULT_VEHTYPE" speedFactor="1.09" vaporized=""/>
    <tripinfo id="6" depart="4.00" departLane="" departPos="0.00" departSpeed="14.31" departDelay="0.00" arrival="119.00" arrivalLane="" arrivalPos="169.98" arrivalSpeed="14.31" duration="115.00" routeLength="1637.33" waitingTime="0.00" waitingCount="0" stopTime="0.00" timeLoss="0.00" rerouteNo="0" devices="tripinfo_6" vType="DEFAULT_VEHTYPE" speedFactor="1.03" vaporized=""/>
    <tripinfo id="3" depart="0.00" departLane="" departPos="0.00" departSpeed="13.03" departDelay="0.00" arrival="122.00" arrivalLane="" arrivalPos="137.52" arrivalSpeed="13.03" duration="122.00" routeLength="1582.52" waitingTime="0.00" waitingCount="0" stopTime="0.00" timeLoss="0.00" rerouteNo="0" devices="tripinfo_3" vType="DEFAULT_VEHTYPE" speedFactor="0.94" vaporized=""/>
    <tripinfo id="8" depart="5.00" departLane="" departPos="0.00" departSpeed="14.53" departDelay="0.00" arrival="123.00" arrivalLane="" arrivalPos="125.77" arrivalSpeed="14.53" duration="118.00" routeLength="1708.52" waitingTime="0.00" waitingCount="0" stopTime="0.00" timeLoss="0.00" rerouteNo="0" devices="tripinfo_8" vType="DEFAULT_VEHTYPE" speedFactor="1.05" vaporized=""/>
    <tripinfo id="77" depart="70.00" departLane="" departPos="0.00" departSpeed="13.68" departDelay="0.00" arrival="123.00" arrivalLane="" arrivalPos="142.41" arrivalSpeed="13.68" duration="53.00" routeLength="714.98" waitingTime="0.00" waitingCount="0" stopTime="0.00" timeLoss="0.00" rerouteNo="0" devices="tripinfo_77" vType="DEFAULT_VEHTYPE" speedFactor="0.98" vaporized=""/>
    <tripinfo id="87" depart="78.00" departLane="" departPos="0.00" departSpeed="13.55" departDelay="0.00" arrival="123.00" arrivalLane="" arrivalPos="137.93" arrivalSpeed="13.56" duration="45.00" routeLength="606.65" waitingTime="0.00" waitingCount="0" stopTime="0.00" timeLoss="0.00" rerouteNo="0" devices="tripinfo_87" vType="DEFAULT_VEHTYPE" speedFactor="0.98" vaporized=""/>
    <tripinfo id="85" depart="77.00" departLane="" departPos="0.00" departSpeed="13.43" departDelay="0.00" arrival="124.00" arrivalLane="" arrivalPos="110.89" arrivalSpeed="13.43" duration="47.00" routeLength="624.77" waitingTime="0.00" waitingCount="0" stopTime="0.00" timeLoss="0.00" rerouteNo="0" devices="tripinfo_85" vType="DEFAULT_VEHTYPE" speedFactor="0.97" vaporized=""/>
    <tripinfo id="22" depart="14.00" departLane="" departPos="0.00" departSpeed="14.14" departDelay="0.00" arrival="126.00" arrivalLane="" arrivalPos="210.48" arrivalSpeed="14.14" duration="112.00" routeLength="1577.54" waitingTime="0.00" waitingCount="0" stopTime="0.00" timeLoss="0.00" rerouteNo="0" devices="tripinfo_22" vType="DEFAULT_VEHTYPE" speedFactor="1.02" vaporized=""/>
    <tripinfo id="7" depart="5.00" departLane="" departPos="0.00" departSpeed="11.54" departDelay="0.00" arrival="128.00" arrivalLane="" arrivalPos="101.25" arrivalSpeed="11.54" duration="123.00" routeLength="1416.72" waitingTime="0.00" waitingCount="0" stopTime="0.00" timeLoss="0.00" rerouteNo="0" devices="tripinfo_7" vType="DEFAULT_VEHTYPE" speedFactor="0.83" vaporized=""/>
    <tripinfo id="5" depart="3.00" departLane="" departPos="0.00" departSpeed="15.04" departDelay="0.00" arrival="130.00" arrivalLane="" arrivalPos="77.28" arrivalSpeed="15.04" duration="127.00" routeLength="1898.04" waitingTime="0.00" waitingCount="0" stopTime="0.00" timeLoss="0.00" rerouteNo="0" devices="tripinfo_5" vType="DEFAULT_VEHTYPE" speedFactor="1.08" vaporized=""/>
    <tripinfo id="52" depart="48.00" departLane="" departPos="0.00" departSpeed="11.87" departDelay="0.00" arrival="133.00" arrivalLane="" arrivalPos="107.93" arrivalSpeed="11.87" duration="85.00" routeLength="998.07" waitingTime="0.48" waitingCount="0" stopTime="0.00" timeLoss="0.48" rerouteNo="0" devices="tripinfo_52" vType="DEFAULT_VEHTYPE" speedFactor="0.85" vaporized=""/>
    <tripinfo id="25" depart="17.00" departLane="" departPos="0.00" departSpeed="12.36" departDelay="0.00" arrival="134.00" arrivalLane="" arrivalPos="202.96" arrivalSpeed="12.36" duration="117.00" routeLength="1441.54" waitingTime="0.00" waitingCount="0" stopTime="0.00" timeLoss="0.00" rerouteNo="0" devices="tripinfo_25" vType="DEFAULT_VEHTYPE" speedFactor="0.89" vaporized=""/>
    <tripinfo id="45" depart="42.00" departLane="" departPos="0.00" departSpeed="14.42" departDelay="0.00" arrival="134.00" arrivalLane="" arrivalPos="153.59" arrivalSpeed="14.42" duration="92.00" routeLength="1316.50" waitingTime="0.00" waitingCount="0" stopTime="0.00" timeLoss="0.00" rerouteNo="0" devices="tripinfo_45" vType="DEFAULT_VEHTYPE" speedFactor="1.04" vaporized=""/>
    <tripinfo id="23" depart="15.00" departLane="" departPos="0.00" departSpeed="14.03" departDelay="0.00" arrival="135.00" arrivalLane="" arrivalPos="137.10" arrivalSpeed="14.03" duration="120.00" routeLength="1676.97" waitingTime="0.00" waitingCount="0" stopTime="0.00" timeLoss="0.00" rerouteNo="0" devices="tripinfo_23" vType="DEFAULT_VEHTYPE" speedFactor="1.01" vaporized=""/>
    <tripinfo id="107" depart="98.00" departLane="" departPos="0.00" departSpeed="14.90" departDelay="0.00" arrival="138.00" arrivalLane="" arrivalPos="95.18" arrivalSpeed="14.90" duration="40.00" routeLength="584.22" waitingTime="0.00" waitingCount="0" stopTime="0.00" timeLoss="0.00" rerouteNo="0" devices="tripinfo_107" vType="DEFAULT_VEHTYPE" speedFactor="1.07" vaporized=""/>
    <tripinfo id="135" depart="125.00" departLane="" departPos="0.00" departSpeed="14.41" departDelay="0.00" arrival="138.00" arrivalLane="" arrivalPos="93.64" arrivalSpeed="14.41" duration="13.00" routeLength="187.28" waitingTime="0.00" waitingCount="0" stopTime="0.00" timeLoss="0.00" rerouteNo="0" devices="tripinfo_135" vType="DEFAULT_VEHTYPE" speedFactor="1.04" vaporized=""/>
    <tripinfo id="40" depart="36.00" departLane="" departPos="0.00" departSpeed="15.31" departDelay="0.00" arrival="141.00" arrivalLane="" arrivalPos="232.80" arrivalSpeed="15.31" duration="105.00" routeLength="1551.85" waitingTime="0.00" waitingCount="0" stopTime="0.00" timeLoss="2.88" rerouteNo="0" devices="tripinfo_40" vType="DEFAULT_VEHTYPE" speedFactor="1.10" vaporized=""/>
    <tripinfo id="34" depart="28.00" departLane="" departPos="0.00" departSpeed="13.96" departDelay="0.00" arrival="143.00" arrivalLane="" arrivalPos="142.47" arrivalSpeed="13.96" duration="115.00" routeLength="1590.33" waitingTime="0.00" waitingCount="0" stopTime="0.00" timeLoss="0.33" rerouteNo="0" devices="tripinfo_34" vType="DEFAULT_VEHTYPE" speedFactor="1.01" vaporized=""/>
    <tripinfo id="42" depart="39.00" departLane="" departPos="0.00" departSpeed="14.31" departDelay="0.00" arrival="144.00" arrivalLane="" arrivalPos="206.52" arrivalSpeed="14.31" duration="105.00" routeLength="1477.58" waitingTime="1.57" waitingCount="0" stopTime="0.00" timeLoss="1.57" rerouteNo="0" devices="tripinfo_42" vType="DEFAULT_VEHTYPE" speedFactor="1.03" vaporized=""/>
    <tripinfo id="43" depart="40.00" departLane="" departPos="0.00" departSpeed="13.29" departDelay="0.00" arrival="144.00" arrivalLane="" arrivalPos="156.98" arrivalSpeed="13.29" duration="104.00" routeLength="1373.78" waitingTime="0.00" waitingCount="0" stopTime="0.00" timeLoss="0.00" rerouteNo="0" devices="tripinfo_43" vType="DEFAULT_VEHTYPE" speedFactor="0.96" vaporized=""/>
    <tripinfo id="51" depart="48.00" departLane="" departPos="0.00" departSpeed="11.81" departDelay="0.00" arrival="146.00" arrivalLane="" arrivalPos="112.15" arrivalSpeed="11.81" duration="98.00" routeLength="1151.71" waitingTime="0.00" waitingCount="0" stopTime="0.00" timeLoss="0.00" rerouteNo="0" devices="tripinfo_51" vType="DEFAULT_VEHTYPE" speedFactor="0.85" vaporized=""/>
    <tripinfo id="71" depart="66.00" departLane="" departPos="0.00" departSpeed="14.20" departDelay="0.00" arrival="146.00" arrivalLane="" arrivalPos="200.06" arrivalSpeed="14.20" duration="80.00" routeLength="1129.40" waitingTime="0.00" waitingCount="0" stopTime="0.00" timeLoss="0.00" rerouteNo="0" devices="tripinfo_71" vType="DEFAULT_VEHTYPE" speedFactor="1.02" vaporized=""/>
    <tripinfo id="82" depart="75.00" departLane="" departPos="0.00" departSpeed="14.37" departDelay="0.00" arrival="147.00" arrivalLane="" arrivalPos="188.74" arrivalSpeed="14.37" duration="72.00" routeLength="1022.70" waitingTime="0.00" waitingCount="0" stopTime="0.00" timeLoss="0.00" rerouteNo="0" devices="tripinfo_82" vType="DEFAULT_VEHTYPE" speedFactor="1.03" vaporized=""/>
    <tripinfo id="50" depart="47.00" departLane="" departPos="0.00" departSpeed="12.18" departDelay="0.00" arrival="150.00" arrivalLane="" arrivalPos="174.54" arrivalSpeed="12.18" duration="103.00" routeLength="1245.77" waitingTime="0.00" waitingCount="0" stopTime="0.00" timeLoss="0.00" rerouteNo="0" devices="tripinfo_50" vType="DEFAULT_VEHTYPE" speedFactor="0.88" vaporized=""/>
    <tripinfo id="73" depart="67.00" departLane="" departPos="0.00" departSpeed="13.51" departDelay="0.00" arrival="150.00" arrivalLane="" arrivalPos="199.44" arrivalSpeed="13.51" duration="83.00" routeLength="1114.50" waitingTime="0.00" waitingCount="0" stopTime="0.00" timeLoss="0.00" rerouteNo="0" devices="tripinfo_73" vType="DEFAULT_VEHTYPE" speedFactor="0.97" vaporized=""/>
    <tripinfo id="41" depart="36.00" departLane="" departPos="0.00" departSpeed="12.51" departDelay="0.00" arrival="152.00" arrivalLane="" arrivalPos="214.32" arrivalSpeed="12.51" duration="116.00" routeLength="1444.85" waitingTime="0.00" waitingCount="0" stopTime="0.00" timeLoss="0.00" rerouteNo="0" devices="tripinfo_41" vType="DEFAULT_VEHTYPE" speedFactor="0.90" vaporized=""/>
    <tripinfo id="12" depart="7.00" departLane="" departPos="0.00" departSpeed="15.15" departDelay="0.00" arrival="154.00" arrivalLane="" arrivalPos="125.77" arrivalSpeed="15.15" duration="147.00" routeLength="2217.21" waitingTime="0.00" waitingCount="0" stopTime="0.00" timeLoss="0.00" rerouteNo="0" devices="tripinfo_12" vType="DEFAULT_VEHTYPE" speedFactor="1.09" vaporized=""/>
    <tripinfo id="63" depart="54.00" departLane="" departPos="0.00" departSpeed="15.55" departDelay="0.00" arrival="154.00" arrivalLane="" arrivalPos="141.01" arrivalSpeed="15.55" duration="100.00" routeLength="1554.04" waitingTime="0.00" waitingCount="0" stopTime="0.00" timeLoss="0.00" rerouteNo="0" devices="tripinfo_63" vType="DEFAULT_VEHTYPE" speedFactor="1.12" vaporized=""/>
    <tripinfo id="67" depart="62.00" departLane="" departPos="0.00" departSpeed="12.26" departDelay="0.00" arrival="154.00" arrivalLane="" arrivalPos="189.23" arrivalSpeed="12.26" duration="92.00" routeLength="1116.89" waitingTime="0.00" waitingCount="0" stopTime="0.00" timeLoss="0.00" rerouteNo="0" devices="tripinfo_67" vType="DEFAULT_VEHTYPE" speedFactor="0.88" vaporized=""/>
    <tripinfo id="38" depart="31.00" departLane="" departPos="0.00" departSpeed="13.52" departDelay="0.00" arrival="155.00" arrivalLane="" arrivalPos="208.50" arrivalSpeed="13.52" duration="124.00" routeLength="1664.95" waitingTime="0.76" waitingCount="0" stopTime="0.00" timeLoss="0.76" rerouteNo="0" devices="tripinfo_38" vType="DEFAULT_VEHTYPE" speedFactor="0.97" vaporized=""/>
    <tripinfo id="55" depart="48.00" departLane="" departPos="0.00" departSpeed="15.22" departDelay="0.00" arrival="158.00" arrivalLane="" arrivalPos="112.51" arrivalSpeed="15.22" duration="110.00" routeLength="1663.01" waitingTime="0.00" waitingCount="0" stopTime="0.00" timeLoss="0.00" rerouteNo="0" devices="tripinfo_55" vType="DEFAULT_VEHTYPE" speedFactor="1.10" vaporized=""/>
    <tripinfo id="72" depart="66.00" departLane="" departPos="0.00" departSpeed="14.21" departDelay="0.00" arrival="158.00" arrivalLane="" arrivalPos="157.10" arrivalSpeed="14.21" duration="92.00" routeLength="1298.22" waitingTime="0.00" waitingCount="0" stopTime="0.00" timeLoss="0.00" rerouteNo="0" devices="tripinfo_72" vType="DEFAULT_VEHTYPE" speedFactor="1.02" vaporized=""/>
    <tripinfo id="26" depart="17.00" departLane="" departPos="0.00" departSpeed="11.47" departDelay="0.00" arrival="162.00" arrivalLane="" arrivalPos="94.52" arrivalSpeed="11.47" duration="145.00" routeLength="1654.15" waitingTime="0.00" waitingCount="0" stopTime="0.00" timeLoss="0.00" rerouteNo="0" devices="tripinfo_26" vType="DEFAULT_VEHTYPE" speedFactor="0.83" vaporized=""/>
    <tripinfo id="100" depart="92.00" departLane="" departPos="0.00" departSpeed="15.58" departDelay="0.00" arrival="164.00" arrivalLane="" arrivalPos="88.42" arrivalSpeed="15.58" duration="72.00" routeLength="1092.91" waitingTime="0.00" waitingCount="0" stopTime="0.00" timeLoss="1.84" rerouteNo="0" devices="tripinfo_100" vType="DEFAULT_VEHTYPE" speedFactor="1.12" vaporized=""/>
    <tripinfo id="125" depart="116.00" departLane="" departPos="0.00" departSpeed="14.22" departDelay="0.00" arrival="164.00" arrivalLane="" arrivalPos="209.89" arrivalSpeed="14.21" duration="48.00" routeLength="678.53" waitingTime="0.00" waitingCount="0" stopTime="0.00" timeLoss="0.00" rerouteNo="0" devices="tripinfo_125" vType="DEFAULT_VEHTYPE" speedFactor="1.02" vaporized=""/>
    <tripinfo id="61" depart="52.00" departLane="" departPos="0.00" departSpeed="13.47" departDelay="0.00" arrival="165.00" arrivalLane="" arrivalPos="125.51" arrivalSpeed="13.47" duration="113.00" routeLength="1521.37" waitingTime="0.00" waitingCount="0" stopTime="0.00" timeLoss="0.00" rerouteNo="0" devices="tripinfo_61" vType="DEFAULT_VEHTYPE" speedFactor="0.97" vaporized=""/>
    <tripinfo id="54" depart="48.00" departLane="" departPos="0.00" departSpeed="14.12" departDelay="0.00" arrival="167.00" arrivalLane="" arrivalPos="126.98" arrivalSpeed="14.12" duration="119.00" routeLength="1669.15" waitingTime="0.46" waitingCount="0" stopTime="0.00" timeLoss="0.46" rerouteNo="0" devices="tripinfo_54" vType="DEFAULT_VEHTYPE" speedFactor="1.02" vaporized=""/>
    <tripinfo id="56" depart="49.00" departLane="" departPos="0.00" departSpeed="13.93" departDelay="0.00" arrival="167.00" arrivalLane="" arrivalPos="198.13" arrivalSpeed="13.93" duration="118.00" routeLength="1644.13" waitingTime="0.00" waitingCount="0" stopTime="0.00" timeLoss="0.00" rerouteNo="0" devices="tripinfo_56" vType="DEFAULT_VEHTYPE" speedFactor="1.00" vaporized=""/>
    <tripinfo id="114" depart="107.00" departLane="" departPos="0.00" departSpeed="15.26" departDelay="0.00" arrival="168.00" arrivalLane="" arrivalPos="187.34" arrivalSpeed="15.26" duration="61.00" routeLength="908.47" waitingTime="0.00" waitingCount="0" stopTime="0.00" timeLoss="1.15" rerouteNo="0" devices="tripinfo_114" vType="DEFAULT_VEHTYPE" speedFactor="1.10" vaporized=""/>
    <tripinfo id="36" depart="30.00" departLane="" departPos="0.00" departSpeed="13.82" departDelay="0.00" arrival="169.00" arrivalLane="" arrivalPos="99.88" arrivalSpeed="13.82" duration="139.00" routeLength="1908.99" waitingTime="0.00" waitingCount="0" stopTime="0.00" timeLoss="0.00" rerouteNo="0" devices="tripinfo_36" vType="DEFAULT_VEHTYPE" speedFactor="0.99" vaporized=""/>
    <tripinfo id="88" depart="79.00" departLane="" departPos="0.00" departSpeed="13.91" departDelay="0.00" arrival="169.00" arrivalLane="" arrivalPos="94.09" arrivalSpeed="13.91" duration="90.00" routeLength="1247.54" waitingTime="0.00" waitingCount="0" stopTime="0.00" timeLoss="0.00" rerouteNo="0" devices="tripinfo_88" vType="DEFAULT_VEHTYPE" speedFactor="1.00" vaporized=""/>
    <tripinfo id="92" depart="82.00" departLane="" departPos="0.00" departSpeed="14.12" departDelay="0.00" arrival="169.00" arrivalLane="" arrivalPos="95.50" arrivalSpeed="14.12" duration="87.00" routeLength="1222.48" waitingTime="0.00" waitingCount="0" stopTime="0.00" timeLoss="0.00" rerouteNo="0" devices="tripinfo_92" vType="DEFAULT_VEHTYPE" speedFactor="1.02" vaporized=""/>
    <tripinfo id="28" depart="19.00" departLane="" departPos="0.00" departSpeed="12.74" departDelay="0.00" arrival="170.00" arrivalLane="" arrivalPos="216.58" arrivalSpeed="12.74" duration="151.00" routeLength="1918.43" waitingTime="0.00" waitingCount="0" stopTime="0.00" timeLoss="0.00" rerouteNo="0" devices="tripinfo_28" vType="DEFAULT_VEHTYPE" speedFactor="0.92" vaporized=""/>
    <tripinfo id="132" depart="125.00" departLane="" departPos="0.00" departSpeed="14.34" departDelay="0.00" arrival="172.00" arrivalLane="" arrivalPos="85.62" arrivalSpeed="14.34" duration="47.00" routeLength="670.43" waitingTime="0.00" waitingCount="0" stopTime="0.00" timeLoss="0.00" rerouteNo="0" devices="tripinfo_132" vType="DEFAULT_VEHTYPE" speedFactor="1.03" vaporized=""/>
    <tripinfo id="57" depart="50.00" departLane="" departPos="0.00" departSpeed="13.83" departDelay="0.00" arrival="175.00" arrivalLane="" arrivalPos="97.96" arrivalSpeed="13.83" duration="125.00" routeLength="1726.54" waitingTime="0.00" waitingCount="0" stopTime="0.00" timeLoss="0.00" rerouteNo="0" devices="tripinfo_57" vType="DEFAULT_VEHTYPE" speedFactor="1.00" vaporized=""/>
    <tripinfo id="84" depart="76.00" departLane="" departPos="0.00" departSpeed="14.12" departDelay="0.00" arrival="175.00" arrivalLane="" arrivalPos="161.79" arrivalSpeed="14.12" duration="99.00" routeLength="1391.31" waitingTime="0.00" waitingCount="0" stopTime="0.00" timeLoss="0.11" rerouteNo="0" devices="tripinfo_84" vType="DEFAULT_VEHTYPE" speedFactor="1.02" vaporized=""/>
    <tripinfo id="37" depart="31.00" departLane="" departPos="0.00" departSpeed="14.16" departDelay="0.00" arrival="178.00" arrivalLane="" arrivalPos="161.79" arrivalSpeed="14.16" duration="147.00" routeLength="2076.97" waitingTime="0.00" waitingCount="0" stopTime="0.00" timeLoss="0.00" rerouteNo="0" devices="tripinfo_37" vType="DEFAULT_VEHTYPE" speedFactor="1.02" vaporized=""/>
    <tripinfo id="109" depart="100.00" departLane="" departPos="0.00" departSpeed="14.37" departDelay="0.00" arrival="179.00" arrivalLane="" arrivalPos="156.98" arrivalSpeed="14.37" duration="79.00" routeLength="1133.11" waitingTime="0.00" waitingCount="0" stopTime="0.00" timeLoss="0.00" rerouteNo="0" devices="tripinfo_109" vType="DEFAULT_VEHTYPE" speedFactor="1.03" vaporized=""/>
    <tripinfo id="123" depart="114.00" departLane="" departPos="0.00" departSpeed="15.32" departDelay="0.00" arrival="180.00" arrivalLane="" arrivalPos="209.64" arrivalSpeed="15.32" duration="66.00" routeLength="999.86" waitingTime="0.00" waitingCount="0" stopTime="0.00" timeLoss="0.00" rerouteNo="0" devices="tripinfo_123" vType="DEFAULT_VEHTYPE" speedFactor="1.10" vaporized=""/>
    <tripinfo id="141" depart="131.00" departLane="" departPos="0.00" departSpeed="13.24" departDelay="0.00" arrival="184.00" arrivalLane="" arrivalPos="141.23" arrivalSpeed="13.24" duration="53.00" routeLength="692.04" waitingTime="0.00" waitingCount="0" stopTime="0.00" timeLoss="0.00" rerouteNo="0" devices="tripinfo_141" vType="DEFAULT_VEHTYPE" speedFactor="0.95" vaporized=""/>
    <tripinfo id="46" depart="43.00" departLane="" departPos="0.00" departSpeed="14.49" departDelay="0.00" arrival="185.00" arrivalLane="" arrivalPos="174.54" arrivalSpeed="14.49" duration="142.00" routeLength="2057.46" waitingTime="0.00" waitingCount="0" stopTime="0.00" timeLoss="0.00" rerouteNo="0" devices="tripinfo_46" vType="DEFAULT_VEHTYPE" speedFactor="1.04" vaporized=""/>
    <tripinfo id="98" depart="88.00" departLane="" departPos="0.00" departSpeed="14.03" departDelay="0.00" arrival="185.00" arrivalLane="" arrivalPos="122.94" arrivalSpeed="14.03" duration="97.00" routeLength="1357.61" waitingTime="0.00" waitingCount="0" stopTime="0.00" timeLoss="0.00" rerouteNo="0" devices="tripinfo_98" vType="DEFAULT_VEHTYPE" speedFactor="1.01" vaporized=""/>
    <tripinfo id="24" depart="16.00" departLane="" departPos="0.00" departSpeed="13.54" departDelay="0.00" arrival="186.00" arrivalLane="" arrivalPos="125.51" arrivalSpeed="13.54" duration="170.00" routeLength="2293.08" waitingTime="0.15" waitingCount="0" stopTime="0.00" timeLoss="0.15" rerouteNo="0" devices="tripinfo_24" vType="DEFAULT_VEHTYPE" speedFactor="0.97" vaporized=""/>
    <tripinfo id="9" depart="5.00" departLane="" departPos="0.00" departSpeed="12.31" departDelay="0.00" arrival="187.00" arrivalLane="" arrivalPos="137.23" arrivalSpeed="12.31" duration="182.00" routeLength="2226.90" waitingTime="0.76" waitingCount="0" stopTime="0.00" timeLoss="0.76" rerouteNo="0" devices="tripinfo_9" vType="DEFAULT_VEHTYPE" speedFactor="0.89" vaporized=""/>
    <tripinfo id="81" depart="74.00" departLane="" departPos="0.00" departSpeed="15.10" departDelay="0.00" arrival="187.00" arrivalLane="" arrivalPos="136.94" arrivalSpeed="15.10" duration="113.00" routeLength="1678.74" waitingTime="1.21" waitingCount="0" stopTime="0.00" timeLoss="1.50" rerouteNo="0" devices="tripinfo_81" vType="DEFAULT_VEHTYPE" speedFactor="1.09" vaporized=""/>
    <tripinfo id="151" depart="139.00" departLane="" departPos="0.00" departSpeed="14.44" departDelay="0.00" arrival="187.00" arrivalLane="" arrivalPos="189.44" arrivalSpeed="14.44" duration="48.00" routeLength="691.21" waitingTime="0.00" waitingCount="0" stopTime="0.00" timeLoss="0.00" rerouteNo="0" devices="tripinfo_151" vType="DEFAULT_VEHTYPE" speedFactor="1.04" vaporized=""/>
    <tripinfo id="116" depart="107.00" departLane="" departPos="0.00" departSpeed="15.23" departDelay="0.00" arrival="188.00" arrivalLane="" arrivalPos="107.02" arrivalSpeed="15.23" duration="81.00" routeLength="1227.89" waitingTime="0.00" waitingCount="0" stopTime="0.00" timeLoss="0.00" rerouteNo="0" devices="tripinfo_116" vType="DEFAULT_VEHTYPE" speedFactor="1.10" vaporized=""/>
    <tripinfo id="66" depart="61.00" departLane="" departPos="0.00" departSpeed="13.02" departDelay="0.00" arrival="191.00" arrivalLane="" arrivalPos="184.87" arrivalSpeed="13.02" duration="130.00" routeLength="1691.98" waitingTime="0.00" waitingCount="0" stopTime="0.00" timeLoss="0.00" rerouteNo="0" devices="tripinfo_66" vType="DEFAULT_VEHTYPE" speedFactor="0.94" vaporized=""/>
    <tripinfo id="65" depart="59.00" departLane="" departPos="0.00" departSpeed="13.71" departDelay="0.00" arrival="193.00" arrivalLane="" arrivalPos="103.22" arrivalSpeed="13.71" duration="134.00" routeLength="1835.04" waitingTime="0.00" waitingCount="0" stopTime="0.00" timeLoss="0.00" rerouteNo="0" devices="tripinfo_65" vType="DEFAULT_VEHTYPE" speedFactor="0.99" vaporized=""/>
    <tripinfo id="131" depart="125.00" departLane="" departPos="0.00" departSpeed="14.01" departDelay="0.00" arrival="194.00" arrivalLane="" arrivalPos="107.93" arrivalSpeed="14.01" duration="69.00" routeLength="958.18" waitingTime="0.00" waitingCount="0" stopTime="0.00" timeLoss="0.00" rerouteNo="0" devices="tripinfo_131" vType="DEFAULT_VEHTYPE" speedFactor="1.01" vaporized=""/>
    <tripinfo id="153" depart="142.00" departLane="" departPos="0.00" departSpeed="13.95" departDelay="0.00" arrival="194.00" arrivalLane="" arrivalPos="95.18" arrivalSpeed="13.95" duration="52.00" routeLength="720.36" waitingTime="0.00" waitingCount="0" stopTime="0.00" timeLoss="0.00" rerouteNo="0" devices="tripinfo_153" vType="DEFAULT_VEHTYPE" speedFactor="1.00" vaporized=""/>
    <tripinfo id="97" depart="88.00" departLane="" departPos="0.00" departSpeed="14.68" departDelay="0.00" arrival="195.00" arrivalLane="" arrivalPos="182.56" arrivalSpeed="14.68" duration="107.00" routeLength="1561.39" waitingTime="0.00" waitingCount="0" stopTime="0.00" timeLoss="0.00" rerouteNo="0" devices="tripinfo_97" vType="DEFAULT_VEHTYPE" speedFactor="1.06" vaporized=""/>
    <tripinfo id="10" depart="5.00" departLane="" departPos="0.00" departSpeed="13.03" departDelay="0.00" arrival="197.00" arrivalLane="" arrivalPos="234.48" arrivalSpeed="13.03" duration="192.00" routeLength="2493.68" waitingTime="0.00" waitingCount="0" stopTime="0.00" timeLoss="0.00" rerouteNo="0" devices="tripinfo_10" vType="DEFAULT_VEHTYPE" speedFactor="0.94" vaporized=""/>