<?xml version="1.0" encoding="UTF-8"?>

<!-- generated on 2023-04-29 15:35:38 by Eclipse SUMO sumo Version 1.16.0
<configuration xmlns:xsi="http://www.w3.org/2001/XMLSchema-instance" xsi:noNamespaceSchemaLocation="http://sumo.dlr.de/xsd/sumoConfiguration.xsd">

    <input>
        <net-file value="001/../configurations/maps/4corners_neighborhoods.net.xml"/>
        <route-files value="001/Trips_File_001.rou.xml"/>
        <additional-files value="001/../edgedata.add.xml"/>
    </input>

    <output>
        <output-prefix value="001/"/>
        <summary-output value="001/../summary_001.xml"/>
        <tripinfo-output value="001/../tripinfo_001.xml"/>
    </output>

    <time>
        <begin value="0"/>
    </time>

    <processing>
        <route-steps value="200"/>
        <no-internal-links value="False"/>
        <time-to-teleport value="300"/>
        <time-to-teleport.highways value="0"/>
        <eager-insert value="False"/>
    </processing>

    <report>
        <verbose value="true"/>
        <no-warnings value="False"/>
        <log value="001/../iteration_001.sumo.log"/>
        <no-step-log value="true"/>
    </report>

    <random_number>
        <random value="False"/>
    </random_number>

</configuration>
-->

<tripinfos xmlns:xsi="http://www.w3.org/2001/XMLSchema-instance" xsi:noNamespaceSchemaLocation="http://sumo.dlr.de/xsd/tripinfo_file.xsd">
    <tripinfo id="14" depart="17.00" departLane="318908683#0_0" departPos="5.10" departSpeed="0.00" departDelay="1.00" arrival="79.00" arrivalLane="422688976#1_1" arrivalPos="294.40" arrivalSpeed="28.36" duration="62.00" routeLength="940.85" waitingTime="13.00" waitingCount="1" stopTime="0.00" timeLoss="26.77" rerouteNo="0" devices="tripinfo_14" vType="DEFAULT_VEHTYPE" speedFactor="1.05" vaporized=""/>
    <tripinfo id="2" depart="0.00" departLane="-260998164#3_0" departPos="5.10" departSpeed="0.00" departDelay="0.00" arrival="87.00" arrivalLane="918280984_0" arrivalPos="38.78" arrivalSpeed="14.58" duration="87.00" routeLength="1455.19" waitingTime="14.00" waitingCount="1" stopTime="0.00" timeLoss="33.94" rerouteNo="0" devices="tripinfo_2" vType="DEFAULT_VEHTYPE" speedFactor="1.06" vaporized=""/>
    <tripinfo id="7" depart="9.00" departLane="918280985_0" departPos="5.10" departSpeed="0.00" departDelay="0.00" arrival="91.00" arrivalLane="15374898#0-AddedOffRampEdge_0" arrivalPos="100.00" arrivalSpeed="22.42" duration="82.00" routeLength="996.81" waitingTime="20.00" waitingCount="1" stopTime="0.00" timeLoss="34.59" rerouteNo="0" devices="tripinfo_7" vType="DEFAULT_VEHTYPE" speedFactor="0.83" vaporized=""/>
    <tripinfo id="5" depart="7.00" departLane="-260998164#3_0" departPos="5.10" departSpeed="0.00" departDelay="0.00" arrival="101.00" arrivalLane="15374898#0-AddedOffRampEdge_0" arrivalPos="100.00" arrivalSpeed="28.88" duration="94.00" routeLength="1332.80" waitingTime="30.00" waitingCount="1" stopTime="0.00" timeLoss="49.37" rerouteNo="0" devices="tripinfo_5" vType="DEFAULT_VEHTYPE" speedFactor="1.08" vaporized=""/>
    <tripinfo id="10" depart="13.00" departLane="422688973_0" departPos="5.10" departSpeed="0.00" departDelay="0.00" arrival="105.00" arrivalLane="-597602753#1_0" arrivalPos="143.59" arrivalSpeed="20.49" duration="92.00" routeLength="1063.91" waitingTime="0.00" waitingCount="0" stopTime="0.00" timeLoss="15.19" rerouteNo="0" devices="tripinfo_10" vType="DEFAULT_VEHTYPE" speedFactor="0.94" vaporized=""/>
    <tripinfo id="34" depart="39.00" departLane="-260998164#3_0" departPos="5.10" departSpeed="0.00" departDelay="0.00" arrival="108.00" arrivalLane="-318908683#1_0" arrivalPos="71.22" arrivalSpeed="13.13" duration="69.00" routeLength="955.07" waitingTime="16.00" waitingCount="1" stopTime="0.00" timeLoss="30.03" rerouteNo="0" devices="tripinfo_34" vType="DEFAULT_VEHTYPE" speedFactor="1.01" vaporized=""/>
    <tripinfo id="4" depart="6.00" departLane="597602756#0_0" departPos="5.10" departSpeed="0.00" departDelay="0.00" arrival="109.00" arrivalLane="-105681660#20_0" arrivalPos="806.12" arrivalSpeed="21.65" duration="103.00" routeLength="1867.67" waitingTime="0.00" waitingCount="0" stopTime="0.00" timeLoss="18.27" rerouteNo="0" devices="tripinfo_4" vType="DEFAULT_VEHTYPE" speedFactor="1.01" vaporized=""/>
    <tripinfo id="18" depart="19.00" departLane="422688973_0" departPos="5.10" departSpeed="0.00" departDelay="0.00" arrival="112.00" arrivalLane="-597602753#1_0" arrivalPos="143.59" arrivalSpeed="19.19" duration="93.00" routeLength="1114.81" waitingTime="1.00" waitingCount="1" stopTime="0.00" timeLoss="17.97" rerouteNo="0" devices="tripinfo_18" vType="DEFAULT_VEHTYPE" speedFactor="0.88" vaporized=""/>
    <tripinfo id="22" depart="22.00" departLane="422688973_0" departPos="5.10" departSpeed="0.00" departDelay="0.00" arrival="113.00" arrivalLane="-597602753#1_0" arrivalPos="143.59" arrivalSpeed="20.28" duration="91.00" routeLength="1114.81" waitingTime="0.00" waitingCount="0" stopTime="0.00" timeLoss="26.57" rerouteNo="0" devices="tripinfo_22" vType="DEFAULT_VEHTYPE" speedFactor="1.02" vaporized=""/>
    <tripinfo id="12" depart="15.00" departLane="918280985_0" departPos="5.10" departSpeed="0.00" departDelay="0.00" arrival="115.00" arrivalLane="-597602753#1_0" arrivalPos="143.59" arrivalSpeed="22.23" duration="100.00" routeLength="1123.56" waitingTime="17.00" waitingCount="1" stopTime="0.00" timeLoss="38.38" rerouteNo="0" devices="tripinfo_12" vType="DEFAULT_VEHTYPE" speedFactor="1.09" vaporized=""/>
    <tripinfo id="3" depart="1.00" departLane="318908683#0_0" departPos="5.10" departSpeed="0.00" departDelay="0.00" arrival="126.00" arrivalLane="-597602753#1_0" arrivalPos="143.59" arrivalSpeed="20.54" duration="125.00" routeLength="1208.14" waitingTime="40.00" waitingCount="2" stopTime="0.00" timeLoss="63.75" rerouteNo="0" devices="tripinfo_3" vType="DEFAULT_VEHTYPE" speedFactor="0.94" vaporized=""/>
    <tripinfo id="76" depart="77.00" departLane="-260998164#3_0" departPos="5.10" departSpeed="0.00" departDelay="1.00" arrival="126.00" arrivalLane="-318908683#1_0" arrivalPos="71.22" arrivalSpeed="12.70" duration="49.00" routeLength="955.07" waitingTime="0.00" waitingCount="0" stopTime="0.00" timeLoss="8.43" rerouteNo="0" devices="tripinfo_76" vType="DEFAULT_VEHTYPE" speedFactor="0.96" vaporized=""/>
    <tripinfo id="11" depart="14.00" departLane="318908683#0_0" departPos="5.10" departSpeed="0.00" departDelay="0.00" arrival="127.00" arrivalLane="-597602756#0_0" arrivalPos="325.99" arrivalSpeed="18.52" duration="113.00" routeLength="1401.85" waitingTime="16.00" waitingCount="1" stopTime="0.00" timeLoss="36.29" rerouteNo="0" devices="tripinfo_11" vType="DEFAULT_VEHTYPE" speedFactor="0.86" vaporized=""/>
    <tripinfo id="15" depart="20.00" departLane="318908683#0_0" departPos="5.10" departSpeed="0.00" departDelay="3.00" arrival="134.00" arrivalLane="-105681660#20_0" arrivalPos="806.12" arrivalSpeed="24.31" duration="114.00" routeLength="1436.85" waitingTime="14.00" waitingCount="2" stopTime="0.00" timeLoss="52.84" rerouteNo="0" devices="tripinfo_15" vType="DEFAULT_VEHTYPE" speedFactor="1.12" vaporized=""/>
    <tripinfo id="23" depart="23.00" departLane="918280985_0" departPos="5.10" departSpeed="0.00" departDelay="0.00" arrival="136.00" arrivalLane="-318908683#1_0" arrivalPos="71.22" arrivalSpeed="13.31" duration="113.00" routeLength="674.50" waitingTime="60.00" waitingCount="2" stopTime="0.00" timeLoss="83.02" rerouteNo="0" devices="tripinfo_23" vType="DEFAULT_VEHTYPE" speedFactor="1.01" vaporized=""/>
    <tripinfo id="29" depart="35.00" departLane="918280985_0" departPos="5.10" departSpeed="0.00" departDelay="0.00" arrival="138.00" arrivalLane="-318908683#1_0" arrivalPos="71.22" arrivalSpeed="12.32" duration="103.00" routeLength="674.50" waitingTime="49.00" waitingCount="1" stopTime="0.00" timeLoss="70.72" rerouteNo="0" devices="tripinfo_29" vType="DEFAULT_VEHTYPE" speedFactor="0.95" vaporized=""/>
    <tripinfo id="32" depart="38.00" departLane="918280985_0" departPos="5.10" departSpeed="0.00" departDelay="1.00" arrival="140.00" arrivalLane="-597602756#0_0" arrivalPos="325.99" arrivalSpeed="26.09" duration="102.00" routeLength="1890.39" waitingTime="0.00" waitingCount="0" stopTime="0.00" timeLoss="29.68" rerouteNo="0" devices="tripinfo_32" vType="DEFAULT_VEHTYPE" speedFactor="1.18" vaporized=""/>
    <tripinfo id="37" depart="43.00" departLane="918280985_0" departPos="5.10" departSpeed="0.00" departDelay="0.00" arrival="140.00" arrivalLane="-318908683#1_0" arrivalPos="71.22" arrivalSpeed="12.91" duration="97.00" routeLength="674.50" waitingTime="47.00" waitingCount="1" stopTime="0.00" timeLoss="66.72" rerouteNo="0" devices="tripinfo_37" vType="DEFAULT_VEHTYPE" speedFactor="1.02" vaporized=""/>
    <tripinfo id="17" depart="23.00" departLane="318908683#0_0" departPos="5.10" departSpeed="0.00" departDelay="5.00" arrival="142.00" arrivalLane="-105681660#20_0" arrivalPos="806.12" arrivalSpeed="19.58" duration="119.00" routeLength="1436.85" waitingTime="12.00" waitingCount="2" stopTime="0.00" timeLoss="45.81" rerouteNo="0" devices="tripinfo_17" vType="DEFAULT_VEHTYPE" speedFactor="0.93" vaporized=""/>
    <tripinfo id="28" depart="33.00" departLane="422688973_0" departPos="5.10" departSpeed="0.00" departDelay="0.00" arrival="142.00" arrivalLane="-318908683#1_0" arrivalPos="71.22" arrivalSpeed="12.40" duration="109.00" routeLength="684.23" waitingTime="56.00" waitingCount="2" stopTime="0.00" timeLoss="78.30" rerouteNo="0" devices="tripinfo_28" vType="DEFAULT_VEHTYPE" speedFactor="0.92" vaporized=""/>
    <tripinfo id="21" depart="26.00" departLane="318908683#0_0" departPos="5.10" departSpeed="0.00" departDelay="5.00" arrival="144.00" arrivalLane="-105681660#20_0" arrivalPos="806.12" arrivalSpeed="23.04" duration="118.00" routeLength="1436.85" waitingTime="10.00" waitingCount="2" stopTime="0.00" timeLoss="58.87" rerouteNo="0" devices="tripinfo_21" vType="DEFAULT_VEHTYPE" speedFactor="1.16" vaporized=""/>
    <tripinfo id="52" depart="55.00" departLane="-260998164#3_0" departPos="5.10" departSpeed="0.00" departDelay="0.00" arrival="144.00" arrivalLane="422688976#1_0" arrivalPos="294.40" arrivalSpeed="22.72" duration="89.00" routeLength="1702.46" waitingTime="0.00" waitingCount="0" stopTime="0.00" timeLoss="16.35" rerouteNo="0" devices="tripinfo_52" vType="DEFAULT_VEHTYPE" speedFactor="0.85" vaporized=""/>
    <tripinfo id="80" depart="79.00" departLane="918280985_0" departPos="5.10" departSpeed="0.00" departDelay="0.00" arrival="144.00" arrivalLane="-318908683#1_0" arrivalPos="71.22" arrivalSpeed="12.97" duration="65.00" routeLength="674.50" waitingTime="12.00" waitingCount="1" stopTime="0.00" timeLoss="34.44" rerouteNo="0" devices="tripinfo_80" vType="DEFAULT_VEHTYPE" speedFactor="1.01" vaporized=""/>
    <tripinfo id="47" depart="49.00" departLane="422685671#2_0" departPos="5.10" departSpeed="0.00" departDelay="0.00" arrival="147.00" arrivalLane="422688976#1_1" arrivalPos="294.40" arrivalSpeed="29.58" duration="98.00" routeLength="1317.05" waitingTime="26.00" waitingCount="1" stopTime="0.00" timeLoss="52.35" rerouteNo="0" devices="tripinfo_47" vType="DEFAULT_VEHTYPE" speedFactor="1.09" vaporized=""/>
    <tripinfo id="6" depart="9.00" departLane="105681660#12_0" departPos="5.10" departSpeed="0.00" departDelay="0.00" arrival="148.00" arrivalLane="-597602756#0_0" arrivalPos="325.99" arrivalSpeed="21.72" duration="139.00" routeLength="1877.95" waitingTime="35.00" waitingCount="1" stopTime="0.00" timeLoss="54.71" rerouteNo="0" devices="tripinfo_6" vType="DEFAULT_VEHTYPE" speedFactor="1.03" vaporized=""/>
    <tripinfo id="27" depart="30.00" departLane="318908683#0_0" departPos="5.10" departSpeed="0.00" departDelay="0.00" arrival="151.00" arrivalLane="-105681660#20_0" arrivalPos="806.12" arrivalSpeed="18.64" duration="121.00" routeLength="1436.85" waitingTime="8.00" waitingCount="2" stopTime="0.00" timeLoss="42.65" rerouteNo="0" devices="tripinfo_27" vType="DEFAULT_VEHTYPE" speedFactor="0.87" vaporized=""/>
    <tripinfo id="45" depart="49.00" departLane="597602753#0_0" departPos="5.10" departSpeed="0.00" departDelay="0.00" arrival="152.00" arrivalLane="-105681660#20_0" arrivalPos="806.12" arrivalSpeed="22.16" duration="103.00" routeLength="1387.70" waitingTime="16.00" waitingCount="2" stopTime="0.00" timeLoss="41.73" rerouteNo="0" devices="tripinfo_45" vType="DEFAULT_VEHTYPE" speedFactor="1.04" vaporized=""/>
    <tripinfo id="33" depart="38.00" departLane="422688973_0" departPos="5.10" departSpeed="0.00" departDelay="0.00" arrival="154.00" arrivalLane="-105681660#20_0" arrivalPos="806.12" arrivalSpeed="21.99" duration="116.00" routeLength="1352.23" waitingTime="29.00" waitingCount="1" stopTime="0.00" timeLoss="51.31" rerouteNo="0" devices="tripinfo_33" vType="DEFAULT_VEHTYPE" speedFactor="1.15" vaporized=""/>
    <tripinfo id="35" depart="42.00" departLane="-260998164#3_0" departPos="5.10" departSpeed="0.00" departDelay="1.00" arrival="155.00" arrivalLane="918280984_0" arrivalPos="38.78" arrivalSpeed="16.16" duration="113.00" routeLength="1465.15" waitingTime="38.00" waitingCount="1" stopTime="0.00" timeLoss="63.74" rerouteNo="0" devices="tripinfo_35" vType="DEFAULT_VEHTYPE" speedFactor="1.17" vaporized=""/>
    <tripinfo id="39" depart="44.00" departLane="422688973_0" departPos="5.10" departSpeed="0.00" departDelay="0.00" arrival="156.00" arrivalLane="-105681660#20_0" arrivalPos="806.12" arrivalSpeed="24.47" duration="112.00" routeLength="1352.23" waitingTime="26.00" waitingCount="1" stopTime="0.00" timeLoss="47.65" rerouteNo="0" devices="tripinfo_39" vType="DEFAULT_VEHTYPE" speedFactor="1.18" vaporized=""/>
    <tripinfo id="49" depart="51.00" departLane="-260998164#3_0" departPos="5.10" departSpeed="0.00" departDelay="1.00" arrival="157.00" arrivalLane="918280984_0" arrivalPos="38.78" arrivalSpeed="12.41" duration="106.00" routeLength="1455.19" waitingTime="25.00" waitingCount="1" stopTime="0.00" timeLoss="43.40" rerouteNo="0" devices="tripinfo_49" vType="DEFAULT_VEHTYPE" speedFactor="0.90" vaporized=""/>
    <tripinfo id="30" depart="35.00" departLane="422685671#2_0" departPos="5.10" departSpeed="0.00" departDelay="0.00" arrival="159.00" arrivalLane="918280984_0" arrivalPos="38.78" arrivalSpeed="15.15" duration="124.00" routeLength="1069.78" waitingTime="58.00" waitingCount="2" stopTime="0.00" timeLoss="85.21" rerouteNo="0" devices="tripinfo_30" vType="DEFAULT_VEHTYPE" speedFactor="1.13" vaporized=""/>
    <tripinfo id="59" depart="64.00" departLane="422685671#2_0" departPos="5.10" departSpeed="0.00" departDelay="0.00" arrival="161.00" arrivalLane="918280984_0" arrivalPos="38.78" arrivalSpeed="15.41" duration="97.00" routeLength="1069.78" waitingTime="26.00" waitingCount="2" stopTime="0.00" timeLoss="58.12" rerouteNo="0" devices="tripinfo_59" vType="DEFAULT_VEHTYPE" speedFactor="1.14" vaporized=""/>
    <tripinfo id="25" depart="28.00" departLane="105681660#12_0" departPos="5.10" departSpeed="0.00" departDelay="0.00" arrival="162.00" arrivalLane="-597602756#0_0" arrivalPos="325.99" arrivalSpeed="18.74" duration="134.00" routeLength="1877.95" waitingTime="9.00" waitingCount="1" stopTime="0.00" timeLoss="35.80" rerouteNo="0" devices="tripinfo_25" vType="DEFAULT_VEHTYPE" speedFactor="0.89" vaporized=""/>
    <tripinfo id="31" depart="35.00" departLane="105681660#12_0" departPos="5.10" departSpeed="0.00" departDelay="0.00" arrival="163.00" arrivalLane="-597602756#0_0" arrivalPos="325.99" arrivalSpeed="19.62" duration="128.00" routeLength="1877.95" waitingTime="8.00" waitingCount="1" stopTime="0.00" timeLoss="34.54" rerouteNo="0" devices="tripinfo_31" vType="DEFAULT_VEHTYPE" speedFactor="0.93" vaporized=""/>
    <tripinfo id="77" depart="77.00" departLane="422685671#2_0" departPos="5.10" departSpeed="0.00" departDelay="0.00" arrival="163.00" arrivalLane="918280984_0" arrivalPos="38.78" arrivalSpeed="12.44" duration="86.00" routeLength="1069.78" waitingTime="9.00" waitingCount="2" stopTime="0.00" timeLoss="41.70" rerouteNo="0" devices="tripinfo_77" vType="DEFAULT_VEHTYPE" speedFactor="0.98" vaporized=""/>
    <tripinfo id="99" depart="106.00" departLane="918280985_0" departPos="5.10" departSpeed="0.00" departDelay="9.00" arrival="164.00" arrivalLane="15374898#0-AddedOffRampEdge_0" arrivalPos="100.00" arrivalSpeed="24.54" duration="58.00" routeLength="996.81" waitingTime="0.00" waitingCount="0" stopTime="0.00" timeLoss="14.29" rerouteNo="0" devices="tripinfo_99" vType="DEFAULT_VEHTYPE" speedFactor="0.91" vaporized=""/>
    <tripinfo id="100" depart="97.00" departLane="318908683#0_0" departPos="5.10" departSpeed="0.00" departDelay="0.00" arrival="166.00" arrivalLane="918280984_0" arrivalPos="38.78" arrivalSpeed="14.39" duration="69.00" routeLength="693.58" waitingTime="23.00" waitingCount="1" stopTime="0.00" timeLoss="41.34" rerouteNo="0" devices="tripinfo_100" vType="DEFAULT_VEHTYPE" speedFactor="1.12" vaporized=""/>
    <tripinfo id="61" depart="67.00" departLane="422688973_0" departPos="5.10" departSpeed="0.00" departDelay="1.00" arrival="167.00" arrivalLane="-597602753#1_0" arrivalPos="143.59" arrivalSpeed="20.64" duration="100.00" routeLength="1063.91" waitingTime="4.00" waitingCount="1" stopTime="0.00" timeLoss="25.54" rerouteNo="0" devices="tripinfo_61" vType="DEFAULT_VEHTYPE" speedFactor="0.97" vaporized=""/>
    <tripinfo id="43" depart="48.00" departLane="-260998164#3_0" departPos="5.10" departSpeed="0.00" departDelay="0.00" arrival="169.00" arrivalLane="-105681660#20_0" arrivalPos="806.12" arrivalSpeed="20.09" duration="121.00" routeLength="2198.46" waitingTime="0.00" waitingCount="0" stopTime="0.00" timeLoss="23.23" rerouteNo="0" devices="tripinfo_43" vType="DEFAULT_VEHTYPE" speedFactor="0.96" vaporized=""/>
    <tripinfo id="102" depart="97.00" departLane="105681660#12_0" departPos="5.10" departSpeed="0.00" departDelay="0.00" arrival="172.00" arrivalLane="-597602753#1_0" arrivalPos="143.59" arrivalSpeed="23.44" duration="75.00" routeLength="1380.56" waitingTime="0.00" waitingCount="0" stopTime="0.00" timeLoss="15.19" rerouteNo="0" devices="tripinfo_102" vType="DEFAULT_VEHTYPE" speedFactor="1.06" vaporized=""/>
    <tripinfo id="13" depart="16.00" departLane="422685671#2_0" departPos="5.10" departSpeed="0.00" departDelay="0.00" arrival="173.00" arrivalLane="-597602756#0_0" arrivalPos="325.99" arrivalSpeed="22.15" duration="157.00" routeLength="1778.05" waitingTime="53.00" waitingCount="1" stopTime="0.00" timeLoss="80.61" rerouteNo="0" devices="tripinfo_13" vType="DEFAULT_VEHTYPE" speedFactor="1.03" vaporized=""/>
    <tripinfo id="50" depart="53.00" departLane="105681660#12_0" departPos="5.10" departSpeed="0.00" departDelay="1.00" arrival="177.00" arrivalLane="918280984_0" arrivalPos="38.78" arrivalSpeed="11.27" duration="124.00" routeLength="1405.13" waitingTime="10.00" waitingCount="2" stopTime="0.00" timeLoss="31.61" rerouteNo="0" devices="tripinfo_50" vType="DEFAULT_VEHTYPE" speedFactor="0.88" vaporized=""/>
    <tripinfo id="81" depart="80.00" departLane="422688973_0" departPos="5.10" departSpeed="0.00" departDelay="0.00" arrival="178.00" arrivalLane="15374898#0-AddedOffRampEdge_0" arrivalPos="100.00" arrivalSpeed="29.50" duration="98.00" routeLength="1006.54" waitingTime="41.00" waitingCount="1" stopTime="0.00" timeLoss="63.63" rerouteNo="0" devices="tripinfo_81" vType="DEFAULT_VEHTYPE" speedFactor="1.09" vaporized=""/>
    <tripinfo id="105" depart="100.00" departLane="105681660#12_0" departPos="5.10" departSpeed="0.00" departDelay="1.00" arrival="178.00" arrivalLane="-597602753#1_0" arrivalPos="143.59" arrivalSpeed="20.10" duration="78.00" routeLength="1380.56" waitingTime="0.00" waitingCount="0" stopTime="0.00" timeLoss="10.94" rerouteNo="0" devices="tripinfo_105" vType="DEFAULT_VEHTYPE" speedFactor="0.95" vaporized=""/>
    <tripinfo id="101" depart="97.00" departLane="597602756#0_0" departPos="5.10" departSpeed="0.00" departDelay="0.00" arrival="181.00" arrivalLane="260998164#0_0" arrivalPos="257.55" arrivalSpeed="29.23" duration="84.00" routeLength="1239.91" waitingTime="0.00" waitingCount="0" stopTime="0.00" timeLoss="16.76" rerouteNo="0" devices="tripinfo_101" vType="DEFAULT_VEHTYPE" speedFactor="1.10" vaporized=""/>
    <tripinfo id="74" depart="75.00" departLane="918280985_0" departPos="5.10" departSpeed="0.00" departDelay="0.00" arrival="182.00" arrivalLane="-597602753#1_0" arrivalPos="143.59" arrivalSpeed="20.17" duration="107.00" routeLength="1123.56" waitingTime="16.00" waitingCount="2" stopTime="0.00" timeLoss="35.56" rerouteNo="0" devices="tripinfo_74" vType="DEFAULT_VEHTYPE" speedFactor="0.94" vaporized=""/>
    <tripinfo id="20" depart="21.00" departLane="105681660#12_0" departPos="5.10" departSpeed="0.00" departDelay="0.00" arrival="183.00" arrivalLane="260998164#0_0" arrivalPos="257.55" arrivalSpeed="25.95" duration="162.00" routeLength="2169.41" waitingTime="17.00" waitingCount="2" stopTime="0.00" timeLoss="49.38" rerouteNo="0" devices="tripinfo_20" vType="DEFAULT_VEHTYPE" speedFactor="0.94" vaporized=""/>
    <tripinfo id="96" depart="103.00" departLane="918280985_0" departPos="5.10" departSpeed="0.00" departDelay="7.00" arrival="183.00" arrivalLane="-597602753#1_0" arrivalPos="143.59" arrivalSpeed="23.14" duration="80.00" routeLength="1123.56" waitingTime="0.00" waitingCount="0" stopTime="0.00" timeLoss="18.45" rerouteNo="0" devices="tripinfo_96" vType="DEFAULT_VEHTYPE" speedFactor="1.09" vaporized=""/>
    <tripinfo id="38" depart="44.00" departLane="597602753#0_0" departPos="5.10" departSpeed="0.00" departDelay="0.00" arrival="184.00" arrivalLane="-105681660#20_0" arrivalPos="806.12" arrivalSpeed="20.92" duration="140.00" routeLength="1856.78" waitingTime="9.00" waitingCount="1" stopTime="0.00" timeLoss="28.49" rerouteNo="0" devices="tripinfo_38" vType="DEFAULT_VEHTYPE" speedFactor="0.97" vaporized=""/>
    <tripinfo id="95" depart="96.00" departLane="422688973_0" departPos="5.10" departSpeed="0.00" departDelay="0.00" arrival="185.00" arrivalLane="15374898#0-AddedOffRampEdge_0" arrivalPos="100.00" arrivalSpeed="25.41" duration="89.00" routeLength="1006.54" waitingTime="27.00" waitingCount="1" stopTime="0.00" timeLoss="48.46" rerouteNo="0" devices="tripinfo_95" vType="DEFAULT_VEHTYPE" speedFactor="0.92" vaporized=""/>
    <tripinfo id="103" depart="98.00" departLane="422688973_0" departPos="5.10" departSpeed="0.00" departDelay="0.00" arrival="186.00" arrivalLane="15374898#0-AddedOffRampEdge_0" arrivalPos="100.00" arrivalSpeed="26.27" duration="88.00" routeLength="1006.54" waitingTime="27.00" waitingCount="1" stopTime="0.00" timeLoss="49.48" rerouteNo="0" devices="tripinfo_103" vType="DEFAULT_VEHTYPE" speedFactor="0.96" vaporized=""/>
    <tripinfo id="42" depart="47.00" departLane="422688973_0" departPos="5.10" departSpeed="0.00" departDelay="0.00" arrival="188.00" arrivalLane="260998164#0_0" arrivalPos="257.55" arrivalSpeed="28.47" duration="141.00" routeLength="1470.06" waitingTime="63.00" waitingCount="2" stopTime="0.00" timeLoss="88.33" rerouteNo="0" devices="tripinfo_42" vType="DEFAULT_VEHTYPE" speedFactor="1.03" vaporized=""/>
    <tripinfo id="41" depart="46.00" departLane="422685671#2_0" departPos="5.10" departSpeed="0.00" departDelay="0.00" arrival="189.00" arrivalLane="-597602756#0_0" arrivalPos="325.99" arrivalSpeed="18.88" duration="143.00" routeLength="1778.05" waitingTime="27.00" waitingCount="1" stopTime="0.00" timeLoss="54.18" rerouteNo="0" devices="tripinfo_41" vType="DEFAULT_VEHTYPE" speedFactor="0.90" vaporized=""/>
    <tripinfo id="46" depart="50.00" departLane="422688973_0" departPos="5.10" departSpeed="0.00" departDelay="1.00" arrival="190.00" arrivalLane="260998164#0_0" arrivalPos="257.55" arrivalSpeed="28.30" duration="140.00" routeLength="1470.06" waitingTime="62.00" waitingCount="2" stopTime="0.00" timeLoss="87.31" rerouteNo="0" devices="tripinfo_46" vType="DEFAULT_VEHTYPE" speedFactor="1.04" vaporized=""/>
    <tripinfo id="68" depart="70.00" departLane="918280985_0" departPos="5.10" departSpeed="0.00" departDelay="0.00" arrival="190.00" arrivalLane="-597602753#1_0" arrivalPos="143.59" arrivalSpeed="20.07" duration="120.00" routeLength="1072.66" waitingTime="18.00" waitingCount="2" stopTime="0.00" timeLoss="38.79" rerouteNo="0" devices="tripinfo_68" vType="DEFAULT_VEHTYPE" speedFactor="0.91" vaporized=""/>
    <tripinfo id="110" depart="109.00" departLane="918280985_0" departPos="5.10" departSpeed="0.00" departDelay="3.00" arrival="191.00" arrivalLane="-105681660#20_0" arrivalPos="806.12" arrivalSpeed="22.66" duration="82.00" routeLength="1360.98" waitingTime="0.00" waitingCount="0" stopTime="0.00" timeLoss="9.99" rerouteNo="0" devices="tripinfo_110" vType="DEFAULT_VEHTYPE" speedFactor="1.06" vaporized=""/>
    <tripinfo id="24" depart="24.00" departLane="597602756#0_0" departPos="5.10" departSpeed="0.00" departDelay="0.00" arrival="194.00" arrivalLane="15374898#0-AddedOffRampEdge_1" arrivalPos="100.00" arrivalSpeed="25.82" duration="170.00" routeLength="1760.61" waitingTime="56.00" waitingCount="1" stopTime="0.00" timeLoss="82.75" rerouteNo="0" devices="tripinfo_24" vType="DEFAULT_VEHTYPE" speedFactor="0.97" vaporized=""/>
    <tripinfo id="57" depart="63.00" departLane="-260998164#3_0" departPos="5.10" departSpeed="0.00" departDelay="0.00" arrival="195.00" arrivalLane="15374898#0-AddedOffRampEdge_0" arrivalPos="100.00" arrivalSpeed="27.03" duration="132.00" routeLength="1332.80" waitingTime="65.00" waitingCount="1" stopTime="0.00" timeLoss="83.25" rerouteNo="0" devices="tripinfo_57" vType="DEFAULT_VEHTYPE" speedFactor="1.00" vaporized=""/>
    <tripinfo id="58" depart="64.00" departLane="422688973_0" departPos="5.10" departSpeed="0.00" departDelay="0.00" arrival="196.00" arrivalLane="260998164#0_0" arrivalPos="257.55" arrivalSpeed="23.99" duration="132.00" routeLength="1470.06" waitingTime="53.00" waitingCount="1" stopTime="0.00" timeLoss="71.25" rerouteNo="0" devices="tripinfo_58" vType="DEFAULT_VEHTYPE" speedFactor="0.90" vaporized=""/>
    <tripinfo id="85" depart="82.00" departLane="918280985_0" departPos="5.10" departSpeed="0.00" departDelay="0.00" arrival="197.00" arrivalLane="260998164#0_0" arrivalPos="257.55" arrivalSpeed="26.32" duration="115.00" routeLength="1460.33" waitingTime="31.00" waitingCount="2" stopTime="0.00" timeLoss="56.40" rerouteNo="0" devices="tripinfo_85" vType="DEFAULT_VEHTYPE" speedFactor="0.97" vaporized=""/>
    <tripinfo id="44" depart="49.00" departLane="318908683#0_0" departPos="5.10" departSpeed="0.00" departDelay="0.00" arrival="198.00" arrivalLane="-597602756#0_0" arrivalPos="325.99" arrivalSpeed="23.95" duration="149.00" routeLength="1401.85" waitingTime="64.00" waitingCount="1" stopTime="0.00" timeLoss="88.18" rerouteNo="0" devices="tripinfo_44" vType="DEFAULT_VEHTYPE" speedFactor="1.09" vaporized=""/>
    <tripinfo id="53" depart="56.00" departLane="318908683#0_0" departPos="5.10" departSpeed="0.00" departDelay="0.00" arrival="199.00" arrivalLane="-597602756#0_0" arrivalPos="325.99" arrivalSpeed="25.65" duration="143.00" routeLength="1401.85" waitingTime="59.00" waitingCount="1" stopTime="0.00" timeLoss="86.55" rerouteNo="0" devices="tripinfo_53" vType="DEFAULT_VEHTYPE" speedFactor="1.17" vaporized=""/>
    <tripinfo id="91" depart="88.00" departLane="918280985_0" departPos="5.10" departSpeed="0.00" departDelay="0.00" arrival="199.00" arrivalLane="260998164#0_0" arrivalPos="257.55" arrivalSpeed="27.72" duration="111.00" routeLength="1460.33" waitingTime="26.00" waitingCount="2" stopTime="0.00" timeLoss="55.30" rerouteNo="0" devices="tripinfo_91" vType="DEFAULT_VEHTYPE" speedFactor="1.02" vaporized=""/>
    <tripinfo id="118" depart="115.00" departLane="597602753#0_0" departPos="5.10" departSpeed="0.00" departDelay="4.00" arrival="199.00" arrivalLane="422688976#1_0" arrivalPos="294.40" arrivalSpeed="31.48" duration="84.00" routeLength="1286.53" waitingTime="0.00" waitingCount="0" stopTime="0.00" timeLoss="16.93" rerouteNo="0" devices="tripinfo_118" vType="DEFAULT_VEHTYPE" speedFactor="1.18" vaporized=""/>
    <tripinfo id="97" depart="96.00" departLane="-260998164#3_0" departPos="5.10" departSpeed="0.00" departDelay="0.00" arrival="200.00" arrivalLane="-318908683#1_0" arrivalPos="71.22" arrivalSpeed="14.57" duration="104.00" routeLength="955.07" waitingTime="53.00" waitingCount="1" stopTime="0.00" timeLoss="67.06" rerouteNo="0" devices="tripinfo_97" vType="DEFAULT_VEHTYPE" speedFactor="1.06" vaporized=""/>
    <tripinfo id="140" depart="135.00" departLane="-260998164#3_0" departPos="5.10" departSpeed="0.00" departDelay="0.00" arrival="202.00" arrivalLane="-318908683#1_0" arrivalPos="71.22" arrivalSpeed="13.85" duration="67.00" routeLength="955.07" waitingTime="14.00" waitingCount="1" stopTime="0.00" timeLoss="28.14" rerouteNo="0" devices="tripinfo_140" vType="DEFAULT_VEHTYPE" speedFactor="1.00" vaporized=""/>
    <tripinfo id="67" depart="71.00" departLane="597602753#0_0" departPos="5.10" departSpeed="0.00" departDelay="1.00" arrival="206.00" arrivalLane="-105681660#20_0" arrivalPos="806.12" arrivalSpeed="19.12" duration="135.00" routeLength="1856.78" waitingTime="0.00" waitingCount="0" stopTime="0.00" timeLoss="12.73" rerouteNo="0" devices="tripinfo_67" vType="DEFAULT_VEHTYPE" speedFactor="0.88" vaporized=""/>
    <tripinfo id="122" depart="114.00" departLane="-260998164#3_0" departPos="5.10" departSpeed="0.00" departDelay="0.00" arrival="208.00" arrivalLane="-597602756#0_0" arrivalPos="325.99" arrivalSpeed="20.12" duration="94.00" routeLength="1231.40" waitingTime="0.00" waitingCount="0" stopTime="0.00" timeLoss="16.65" rerouteNo="0" devices="tripinfo_122" vType="DEFAULT_VEHTYPE" speedFactor="0.94" vaporized=""/>