<?xml version="1.0" encoding="UTF-8"?>

<!-- generated on 2023-04-28 21:36:34 by Eclipse SUMO sumo Version 1.16.0
<configuration xmlns:xsi="http://www.w3.org/2001/XMLSchema-instance" xsi:noNamespaceSchemaLocation="http://sumo.dlr.de/xsd/sumoConfiguration.xsd">

    <input>
        <net-file value="C:\Users\Local_Man\Desktop\Stolen%20Music\school%20stuff%20for%20college\Semester%2015%20(UH%20Graduate%20School)\COSC%206364%20Nikolaos\SUMO_Project\COSC6364_Project\configurations\maps\Braess_Homebrew_fixed1.net.xml"/>
        <route-files value="./configurations/Rounds/Braess_Homebrew_fixed1.net.xml-test-1/Macroscopic_DUE/003/Trips_File_003.rou.xml"/>
    </input>

    <output>
        <summary-output value="./configurations/Rounds/Braess_Homebrew_fixed1.net.xml-test-1/Macroscopic_DUE/003/summary.xml"/>
        <tripinfo-output value="./configurations/Rounds/Braess_Homebrew_fixed1.net.xml-test-1/Macroscopic_DUE/003/trips.trips.xml"/>
        <statistic-output value="./configurations/Rounds/Braess_Homebrew_fixed1.net.xml-test-1/Macroscopic_DUE/003/stats_output.xml"/>
    </output>

    <time>
        <begin value="0"/>
    </time>

    <report>
        <log value="./configurations/Rounds/Braess_Homebrew_fixed1.net.xml-test-1/Macroscopic_DUE/003/log.sumo.log"/>
        <no-step-log value="true"/>
    </report>

    <gui_only>
        <quit-on-end value="true"/>
    </gui_only>

</configuration>
-->

<tripinfos xmlns:xsi="http://www.w3.org/2001/XMLSchema-instance" xsi:noNamespaceSchemaLocation="http://sumo.dlr.de/xsd/tripinfo_file.xsd">
    <tripinfo id="3" depart="4.00" departLane="E0_0" departPos="5.10" departSpeed="21.65" departDelay="0.00" arrival="89.00" arrivalLane="E3_0" arrivalPos="90.46" arrivalSpeed="31.61" duration="85.00" routeLength="1314.99" waitingTime="0.00" waitingCount="0" stopTime="0.00" timeLoss="9.11" rerouteNo="0" devices="tripinfo_3" vType="DEFAULT_VEHTYPE" speedFactor="1.08" vaporized=""/>
    <tripinfo id="5" depart="6.00" departLane="E0_0" departPos="5.10" departSpeed="17.18" departDelay="0.00" arrival="97.00" arrivalLane="E3_0" arrivalPos="90.46" arrivalSpeed="30.77" duration="91.00" routeLength="1314.99" waitingTime="0.00" waitingCount="0" stopTime="0.00" timeLoss="12.03" rerouteNo="0" devices="tripinfo_5" vType="DEFAULT_VEHTYPE" speedFactor="1.05" vaporized=""/>
    <tripinfo id="6" depart="7.00" departLane="E0_0" departPos="5.10" departSpeed="14.30" departDelay="1.00" arrival="99.00" arrivalLane="E3_0" arrivalPos="90.46" arrivalSpeed="32.07" duration="92.00" routeLength="1314.99" waitingTime="0.00" waitingCount="0" stopTime="0.00" timeLoss="15.19" rerouteNo="0" devices="tripinfo_6" vType="DEFAULT_VEHTYPE" speedFactor="1.08" vaporized=""/>
    <tripinfo id="8" depart="9.00" departLane="E0_0" departPos="5.10" departSpeed="7.74" departDelay="2.00" arrival="105.00" arrivalLane="E3_0" arrivalPos="90.46" arrivalSpeed="30.05" duration="96.00" routeLength="1314.99" waitingTime="0.00" waitingCount="0" stopTime="0.00" timeLoss="15.33" rerouteNo="0" devices="tripinfo_8" vType="DEFAULT_VEHTYPE" speedFactor="1.02" vaporized=""/>
    <tripinfo id="11" depart="15.00" departLane="E0_0" departPos="5.10" departSpeed="6.78" departDelay="6.00" arrival="106.00" arrivalLane="E3_0" arrivalPos="90.46" arrivalSpeed="31.08" duration="91.00" routeLength="1314.99" waitingTime="0.00" waitingCount="0" stopTime="0.00" timeLoss="18.46" rerouteNo="0" devices="tripinfo_11" vType="DEFAULT_VEHTYPE" speedFactor="1.12" vaporized=""/>
    <tripinfo id="2" depart="1.00" departLane="E0_0" departPos="5.10" departSpeed="19.50" departDelay="0.00" arrival="117.00" arrivalLane="E3_0" arrivalPos="90.46" arrivalSpeed="23.38" duration="116.00" routeLength="1317.38" waitingTime="13.00" waitingCount="1" stopTime="0.00" timeLoss="28.10" rerouteNo="0" devices="tripinfo_2" vType="DEFAULT_VEHTYPE" speedFactor="0.98" vaporized=""/>
    <tripinfo id="12" depart="17.00" departLane="E0_0" departPos="5.10" departSpeed="6.24" departDelay="6.00" arrival="124.00" arrivalLane="E3_0" arrivalPos="90.46" arrivalSpeed="26.81" duration="107.00" routeLength="1314.99" waitingTime="0.00" waitingCount="0" stopTime="0.00" timeLoss="16.32" rerouteNo="0" devices="tripinfo_12" vType="DEFAULT_VEHTYPE" speedFactor="0.90" vaporized=""/>
    <tripinfo id="14" depart="21.00" departLane="E0_0" departPos="5.10" departSpeed="7.03" departDelay="9.00" arrival="126.00" arrivalLane="E3_0" arrivalPos="90.46" arrivalSpeed="29.74" duration="105.00" routeLength="1314.99" waitingTime="0.00" waitingCount="0" stopTime="0.00" timeLoss="26.07" rerouteNo="0" devices="tripinfo_14" vType="DEFAULT_VEHTYPE" speedFactor="1.04" vaporized=""/>
    <tripinfo id="18" depart="29.00" departLane="E0_0" departPos="5.10" departSpeed="5.31" departDelay="13.00" arrival="127.00" arrivalLane="E3_0" arrivalPos="90.46" arrivalSpeed="29.78" duration="98.00" routeLength="1314.99" waitingTime="0.00" waitingCount="0" stopTime="0.00" timeLoss="18.28" rerouteNo="0" devices="tripinfo_18" vType="DEFAULT_VEHTYPE" speedFactor="1.03" vaporized=""/>
    <tripinfo id="20" depart="33.00" departLane="E0_0" departPos="5.10" departSpeed="6.67" departDelay="16.00" arrival="134.00" arrivalLane="E3_0" arrivalPos="90.46" arrivalSpeed="29.26" duration="101.00" routeLength="1314.99" waitingTime="0.00" waitingCount="0" stopTime="0.00" timeLoss="19.19" rerouteNo="0" devices="tripinfo_20" vType="DEFAULT_VEHTYPE" speedFactor="1.01" vaporized=""/>
    <tripinfo id="4" depart="5.00" departLane="E0_0" departPos="5.10" departSpeed="18.97" departDelay="0.00" arrival="143.00" arrivalLane="E3_0" arrivalPos="90.46" arrivalSpeed="25.25" duration="138.00" routeLength="1317.38" waitingTime="34.00" waitingCount="2" stopTime="0.00" timeLoss="66.67" rerouteNo="0" devices="tripinfo_4" vType="DEFAULT_VEHTYPE" speedFactor="1.20" vaporized=""/>
    <tripinfo id="21" depart="35.00" departLane="E0_0" departPos="5.10" departSpeed="6.53" departDelay="18.00" arrival="148.00" arrivalLane="E3_0" arrivalPos="90.46" arrivalSpeed="25.44" duration="113.00" routeLength="1314.99" waitingTime="0.00" waitingCount="0" stopTime="0.00" timeLoss="19.06" rerouteNo="0" devices="tripinfo_21" vType="DEFAULT_VEHTYPE" speedFactor="0.87" vaporized=""/>
    <tripinfo id="22" depart="37.00" departLane="E0_0" departPos="5.10" departSpeed="7.39" departDelay="20.00" arrival="150.00" arrivalLane="E3_0" arrivalPos="90.46" arrivalSpeed="30.00" duration="113.00" routeLength="1314.99" waitingTime="0.00" waitingCount="0" stopTime="0.00" timeLoss="32.75" rerouteNo="0" devices="tripinfo_22" vType="DEFAULT_VEHTYPE" speedFactor="1.03" vaporized=""/>
    <tripinfo id="23" depart="39.00" departLane="E0_0" departPos="5.10" departSpeed="5.82" departDelay="21.00" arrival="151.00" arrivalLane="E3_0" arrivalPos="90.46" arrivalSpeed="29.93" duration="112.00" routeLength="1314.99" waitingTime="0.00" waitingCount="0" stopTime="0.00" timeLoss="39.07" rerouteNo="0" devices="tripinfo_23" vType="DEFAULT_VEHTYPE" speedFactor="1.13" vaporized=""/>
    <tripinfo id="24" depart="41.00" departLane="E0_0" departPos="5.10" departSpeed="4.82" departDelay="23.00" arrival="153.00" arrivalLane="E3_0" arrivalPos="90.46" arrivalSpeed="26.49" duration="112.00" routeLength="1314.99" waitingTime="0.00" waitingCount="0" stopTime="0.00" timeLoss="20.70" rerouteNo="0" devices="tripinfo_24" vType="DEFAULT_VEHTYPE" speedFactor="0.89" vaporized=""/>
    <tripinfo id="25" depart="44.00" departLane="E0_0" departPos="5.10" departSpeed="4.84" departDelay="24.00" arrival="155.00" arrivalLane="E3_0" arrivalPos="90.46" arrivalSpeed="30.20" duration="111.00" routeLength="1314.99" waitingTime="0.00" waitingCount="0" stopTime="0.00" timeLoss="39.62" rerouteNo="0" devices="tripinfo_25" vType="DEFAULT_VEHTYPE" speedFactor="1.15" vaporized=""/>
    <tripinfo id="27" depart="49.00" departLane="E0_0" departPos="5.10" departSpeed="5.38" departDelay="27.00" arrival="156.00" arrivalLane="E3_0" arrivalPos="90.46" arrivalSpeed="29.56" duration="107.00" routeLength="1314.99" waitingTime="0.00" waitingCount="0" stopTime="0.00" timeLoss="24.81" rerouteNo="0" devices="tripinfo_27" vType="DEFAULT_VEHTYPE" speedFactor="0.99" vaporized=""/>
    <tripinfo id="28" depart="51.00" departLane="E0_0" departPos="5.10" departSpeed="5.34" departDelay="29.00" arrival="158.00" arrivalLane="E3_0" arrivalPos="90.46" arrivalSpeed="28.72" duration="107.00" routeLength="1314.99" waitingTime="0.00" waitingCount="0" stopTime="0.00" timeLoss="22.04" rerouteNo="0" devices="tripinfo_28" vType="DEFAULT_VEHTYPE" speedFactor="0.97" vaporized=""/>
    <tripinfo id="30" depart="55.00" departLane="E0_0" departPos="5.10" departSpeed="1.78" departDelay="30.00" arrival="164.00" arrivalLane="E3_0" arrivalPos="90.46" arrivalSpeed="27.30" duration="109.00" routeLength="1314.99" waitingTime="0.00" waitingCount="0" stopTime="0.00" timeLoss="21.39" rerouteNo="0" devices="tripinfo_30" vType="DEFAULT_VEHTYPE" speedFactor="0.94" vaporized=""/>
    <tripinfo id="31" depart="58.00" departLane="E0_0" departPos="5.10" departSpeed="3.41" departDelay="32.00" arrival="165.00" arrivalLane="E3_0" arrivalPos="90.46" arrivalSpeed="30.08" duration="107.00" routeLength="1314.99" waitingTime="0.00" waitingCount="0" stopTime="0.00" timeLoss="32.59" rerouteNo="0" devices="tripinfo_31" vType="DEFAULT_VEHTYPE" speedFactor="1.10" vaporized=""/>
    <tripinfo id="33" depart="63.00" departLane="E0_0" departPos="5.10" departSpeed="6.13" departDelay="33.00" arrival="167.00" arrivalLane="E3_0" arrivalPos="90.46" arrivalSpeed="29.92" duration="104.00" routeLength="1314.99" waitingTime="0.00" waitingCount="0" stopTime="0.00" timeLoss="24.09" rerouteNo="0" devices="tripinfo_33" vType="DEFAULT_VEHTYPE" speedFactor="1.03" vaporized=""/>
    <tripinfo id="34" depart="65.00" departLane="E0_0" departPos="5.10" departSpeed="7.50" departDelay="34.00" arrival="168.00" arrivalLane="E3_0" arrivalPos="90.46" arrivalSpeed="31.89" duration="103.00" routeLength="1314.99" waitingTime="0.00" waitingCount="0" stopTime="0.00" timeLoss="26.00" rerouteNo="0" devices="tripinfo_34" vType="DEFAULT_VEHTYPE" speedFactor="1.07" vaporized=""/>
    <tripinfo id="35" depart="67.00" departLane="E0_0" departPos="5.10" departSpeed="5.97" departDelay="30.00" arrival="170.00" arrivalLane="E3_0" arrivalPos="90.46" arrivalSpeed="30.99" duration="103.00" routeLength="1314.99" waitingTime="0.00" waitingCount="0" stopTime="0.00" timeLoss="23.50" rerouteNo="0" devices="tripinfo_35" vType="DEFAULT_VEHTYPE" speedFactor="1.04" vaporized=""/>
    <tripinfo id="7" depart="8.00" departLane="E0_0" departPos="5.10" departSpeed="11.11" departDelay="1.00" arrival="179.00" arrivalLane="E3_0" arrivalPos="90.46" arrivalSpeed="23.68" duration="171.00" routeLength="1317.38" waitingTime="51.00" waitingCount="2" stopTime="0.00" timeLoss="79.78" rerouteNo="0" devices="tripinfo_7" vType="DEFAULT_VEHTYPE" speedFactor="0.94" vaporized=""/>
    <tripinfo id="37" depart="71.00" departLane="E0_0" departPos="5.10" departSpeed="6.59" departDelay="33.00" arrival="186.00" arrivalLane="E3_0" arrivalPos="90.46" arrivalSpeed="26.12" duration="115.00" routeLength="1314.99" waitingTime="0.00" waitingCount="0" stopTime="0.00" timeLoss="24.00" rerouteNo="0" devices="tripinfo_37" vType="DEFAULT_VEHTYPE" speedFactor="0.90" vaporized=""/>
    <tripinfo id="40" depart="78.00" departLane="E0_0" departPos="5.10" departSpeed="4.05" departDelay="38.00" arrival="188.00" arrivalLane="E3_0" arrivalPos="90.46" arrivalSpeed="30.97" duration="110.00" routeLength="1314.99" waitingTime="0.00" waitingCount="0" stopTime="0.00" timeLoss="32.61" rerouteNo="0" devices="tripinfo_40" vType="DEFAULT_VEHTYPE" speedFactor="1.06" vaporized=""/>
    <tripinfo id="41" depart="80.00" departLane="E0_0" departPos="5.10" departSpeed="0.70" departDelay="39.00" arrival="189.00" arrivalLane="E3_0" arrivalPos="90.46" arrivalSpeed="29.15" duration="109.00" routeLength="1314.99" waitingTime="0.00" waitingCount="0" stopTime="0.00" timeLoss="38.77" rerouteNo="0" devices="tripinfo_41" vType="DEFAULT_VEHTYPE" speedFactor="1.17" vaporized=""/>
    <tripinfo id="47" depart="97.00" departLane="E0_0" departPos="5.10" departSpeed="3.34" departDelay="49.00" arrival="198.00" arrivalLane="E3_0" arrivalPos="90.46" arrivalSpeed="29.53" duration="101.00" routeLength="1314.99" waitingTime="0.00" waitingCount="0" stopTime="0.00" timeLoss="20.58" rerouteNo="0" devices="tripinfo_47" vType="DEFAULT_VEHTYPE" speedFactor="1.02" vaporized=""/>
    <tripinfo id="48" depart="100.00" departLane="E0_0" departPos="5.10" departSpeed="5.61" departDelay="51.00" arrival="203.00" arrivalLane="E3_0" arrivalPos="90.46" arrivalSpeed="29.56" duration="103.00" routeLength="1314.99" waitingTime="0.00" waitingCount="0" stopTime="0.00" timeLoss="19.91" rerouteNo="0" devices="tripinfo_48" vType="DEFAULT_VEHTYPE" speedFactor="1.00" vaporized=""/>
    <tripinfo id="49" depart="102.00" departLane="E0_0" departPos="5.10" departSpeed="5.60" departDelay="52.00" arrival="204.00" arrivalLane="E3_0" arrivalPos="90.46" arrivalSpeed="30.40" duration="102.00" routeLength="1314.99" waitingTime="0.00" waitingCount="0" stopTime="0.00" timeLoss="28.45" rerouteNo="0" devices="tripinfo_49" vType="DEFAULT_VEHTYPE" speedFactor="1.12" vaporized=""/>
    <tripinfo id="9" depart="11.00" departLane="E0_0" departPos="5.10" departSpeed="8.00" departDelay="3.00" arrival="214.00" arrivalLane="E3_0" arrivalPos="90.46" arrivalSpeed="25.14" duration="203.00" routeLength="1317.38" waitingTime="79.00" waitingCount="3" stopTime="0.00" timeLoss="124.17" rerouteNo="0" devices="tripinfo_9" vType="DEFAULT_VEHTYPE" speedFactor="1.09" vaporized=""/>
    <tripinfo id="52" depart="110.00" departLane="E0_0" departPos="5.10" departSpeed="4.64" departDelay="55.00" arrival="216.00" arrivalLane="E3_0" arrivalPos="90.46" arrivalSpeed="28.20" duration="106.00" routeLength="1314.99" waitingTime="0.00" waitingCount="0" stopTime="0.00" timeLoss="20.00" rerouteNo="0" devices="tripinfo_52" vType="DEFAULT_VEHTYPE" speedFactor="0.96" vaporized=""/>
    <tripinfo id="53" depart="112.00" departLane="E0_0" departPos="5.10" departSpeed="4.23" departDelay="57.00" arrival="223.00" arrivalLane="E3_0" arrivalPos="90.46" arrivalSpeed="26.98" duration="111.00" routeLength="1314.99" waitingTime="0.00" waitingCount="0" stopTime="0.00" timeLoss="19.98" rerouteNo="0" devices="tripinfo_53" vType="DEFAULT_VEHTYPE" speedFactor="0.91" vaporized=""/>
    <tripinfo id="54" depart="114.00" departLane="E0_0" departPos="5.10" departSpeed="3.06" departDelay="59.00" arrival="224.00" arrivalLane="E3_0" arrivalPos="90.46" arrivalSpeed="28.37" duration="110.00" routeLength="1314.99" waitingTime="0.00" waitingCount="0" stopTime="0.00" timeLoss="23.15" rerouteNo="0" devices="tripinfo_54" vType="DEFAULT_VEHTYPE" speedFactor="0.95" vaporized=""/>
    <tripinfo id="55" depart="117.00" departLane="E0_0" departPos="5.10" departSpeed="5.75" departDelay="61.00" arrival="226.00" arrivalLane="E3_0" arrivalPos="90.46" arrivalSpeed="30.21" duration="109.00" routeLength="1314.99" waitingTime="0.00" waitingCount="0" stopTime="0.00" timeLoss="28.15" rerouteNo="0" devices="tripinfo_55" vType="DEFAULT_VEHTYPE" speedFactor="1.02" vaporized=""/>
    <tripinfo id="57" depart="122.00" departLane="E0_0" departPos="5.10" departSpeed="0.54" departDelay="64.00" arrival="227.00" arrivalLane="E3_0" arrivalPos="90.46" arrivalSpeed="29.72" duration="105.00" routeLength="1314.99" waitingTime="0.00" waitingCount="0" stopTime="0.00" timeLoss="26.99" rerouteNo="0" devices="tripinfo_57" vType="DEFAULT_VEHTYPE" speedFactor="1.06" vaporized=""/>
    <tripinfo id="58" depart="125.00" departLane="E0_0" departPos="5.10" departSpeed="1.07" departDelay="65.00" arrival="229.00" arrivalLane="E3_0" arrivalPos="90.46" arrivalSpeed="31.05" duration="104.00" routeLength="1314.99" waitingTime="0.00" waitingCount="0" stopTime="0.00" timeLoss="29.72" rerouteNo="0" devices="tripinfo_58" vType="DEFAULT_VEHTYPE" speedFactor="1.12" vaporized=""/>
    <tripinfo id="59" depart="128.00" departLane="E0_0" departPos="5.10" departSpeed="0.26" departDelay="68.00" arrival="230.00" arrivalLane="E3_0" arrivalPos="90.46" arrivalSpeed="30.35" duration="102.00" routeLength="1314.99" waitingTime="0.00" waitingCount="0" stopTime="0.00" timeLoss="21.99" rerouteNo="0" devices="tripinfo_59" vType="DEFAULT_VEHTYPE" speedFactor="1.03" vaporized=""/>
    <tripinfo id="60" depart="132.00" departLane="E0_0" departPos="5.10" departSpeed="2.90" departDelay="72.00" arrival="240.00" arrivalLane="E3_0" arrivalPos="90.46" arrivalSpeed="27.45" duration="108.00" routeLength="1314.99" waitingTime="0.00" waitingCount="0" stopTime="0.00" timeLoss="18.24" rerouteNo="0" devices="tripinfo_60" vType="DEFAULT_VEHTYPE" speedFactor="0.92" vaporized=""/>
    <tripinfo id="61" depart="135.00" departLane="E0_0" departPos="5.10" departSpeed="4.63" departDelay="73.00" arrival="241.00" arrivalLane="E3_0" arrivalPos="90.46" arrivalSpeed="28.66" duration="106.00" routeLength="1314.99" waitingTime="0.00" waitingCount="0" stopTime="0.00" timeLoss="30.41" rerouteNo="0" devices="tripinfo_61" vType="DEFAULT_VEHTYPE" speedFactor="1.09" vaporized=""/>
    <tripinfo id="63" depart="139.00" departLane="E0_0" departPos="5.10" departSpeed="3.74" departDelay="76.00" arrival="243.00" arrivalLane="E3_0" arrivalPos="90.46" arrivalSpeed="29.77" duration="104.00" routeLength="1314.99" waitingTime="0.00" waitingCount="0" stopTime="0.00" timeLoss="23.16" rerouteNo="0" devices="tripinfo_63" vType="DEFAULT_VEHTYPE" speedFactor="1.02" vaporized=""/>
    <tripinfo id="64" depart="142.00" departLane="E0_0" departPos="5.10" departSpeed="6.84" departDelay="78.00" arrival="244.00" arrivalLane="E3_0" arrivalPos="90.46" arrivalSpeed="31.39" duration="102.00" routeLength="1314.99" waitingTime="0.00" waitingCount="0" stopTime="0.00" timeLoss="26.22" rerouteNo="0" devices="tripinfo_64" vType="DEFAULT_VEHTYPE" speedFactor="1.08" vaporized=""/>
    <tripinfo id="67" depart="148.00" departLane="E0_0" departPos="5.10" departSpeed="8.21" departDelay="83.00" arrival="247.00" arrivalLane="E3_0" arrivalPos="90.46" arrivalSpeed="30.08" duration="99.00" routeLength="1314.99" waitingTime="0.00" waitingCount="0" stopTime="0.00" timeLoss="17.50" rerouteNo="0" devices="tripinfo_67" vType="DEFAULT_VEHTYPE" speedFactor="1.01" vaporized=""/>
    <tripinfo id="10" depart="12.00" departLane="E0_0" departPos="5.10" departSpeed="3.42" departDelay="4.00" arrival="256.00" arrivalLane="E3_0" arrivalPos="90.46" arrivalSpeed="25.44" duration="244.00" routeLength="1317.38" waitingTime="113.00" waitingCount="4" stopTime="0.00" timeLoss="150.96" rerouteNo="0" devices="tripinfo_10" vType="DEFAULT_VEHTYPE" speedFactor="0.92" vaporized=""/>
    <tripinfo id="13" depart="19.00" departLane="E0_0" departPos="5.10" departSpeed="6.31" departDelay="8.00" arrival="258.00" arrivalLane="E3_0" arrivalPos="90.46" arrivalSpeed="24.81" duration="239.00" routeLength="1317.38" waitingTime="108.00" waitingCount="4" stopTime="0.00" timeLoss="146.33" rerouteNo="0" devices="tripinfo_13" vType="DEFAULT_VEHTYPE" speedFactor="0.93" vaporized=""/>
    <tripinfo id="15" depart="23.00" departLane="E0_0" departPos="5.10" departSpeed="8.92" departDelay="11.00" arrival="261.00" arrivalLane="E3_0" arrivalPos="90.46" arrivalSpeed="25.55" duration="238.00" routeLength="1317.38" waitingTime="103.00" waitingCount="4" stopTime="0.00" timeLoss="145.94" rerouteNo="0" devices="tripinfo_15" vType="DEFAULT_VEHTYPE" speedFactor="0.94" vaporized=""/>
    <tripinfo id="16" depart="24.00" departLane="E0_0" departPos="5.10" departSpeed="5.10" departDelay="10.00" arrival="262.00" arrivalLane="E3_0" arrivalPos="90.46" arrivalSpeed="24.71" duration="238.00" routeLength="1317.38" waitingTime="101.00" waitingCount="4" stopTime="0.00" timeLoss="158.94" rerouteNo="0" devices="tripinfo_16" vType="DEFAULT_VEHTYPE" speedFactor="1.08" vaporized=""/>
    <tripinfo id="69" depart="152.00" departLane="E0_0" departPos="5.10" departSpeed="9.20" departDelay="82.00" arrival="269.00" arrivalLane="E3_0" arrivalPos="90.46" arrivalSpeed="24.57" duration="117.00" routeLength="1314.99" waitingTime="0.00" waitingCount="0" stopTime="0.00" timeLoss="18.62" rerouteNo="0" devices="tripinfo_69" vType="DEFAULT_VEHTYPE" speedFactor="0.83" vaporized=""/>
    <tripinfo id="70" depart="153.00" departLane="E0_0" departPos="5.10" departSpeed="3.87" departDelay="78.00" arrival="271.00" arrivalLane="E3_0" arrivalPos="90.46" arrivalSpeed="27.52" duration="118.00" routeLength="1314.99" waitingTime="0.00" waitingCount="0" stopTime="0.00" timeLoss="39.46" rerouteNo="0" devices="tripinfo_70" vType="DEFAULT_VEHTYPE" speedFactor="1.05" vaporized=""/>
    <tripinfo id="71" depart="156.00" departLane="E0_0" departPos="5.10" departSpeed="5.21" departDelay="81.00" arrival="272.00" arrivalLane="E3_0" arrivalPos="90.46" arrivalSpeed="26.66" duration="116.00" routeLength="1314.99" waitingTime="0.00" waitingCount="0" stopTime="0.00" timeLoss="37.91" rerouteNo="0" devices="tripinfo_71" vType="DEFAULT_VEHTYPE" speedFactor="1.06" vaporized=""/>
    <tripinfo id="72" depart="158.00" departLane="E0_0" departPos="5.10" departSpeed="5.77" departDelay="83.00" arrival="275.00" arrivalLane="E3_0" arrivalPos="90.46" arrivalSpeed="25.43" duration="117.00" routeLength="1314.99" waitingTime="0.00" waitingCount="0" stopTime="0.00" timeLoss="21.29" rerouteNo="0" devices="tripinfo_72" vType="DEFAULT_VEHTYPE" speedFactor="0.86" vaporized=""/>
    <tripinfo id="73" depart="160.00" departLane="E0_0" departPos="5.10" departSpeed="5.65" departDelay="84.00" arrival="276.00" arrivalLane="E3_0" arrivalPos="90.46" arrivalSpeed="26.70" duration="116.00" routeLength="1314.99" waitingTime="0.00" waitingCount="0" stopTime="0.00" timeLoss="25.44" rerouteNo="0" devices="tripinfo_73" vType="DEFAULT_VEHTYPE" speedFactor="0.91" vaporized=""/>
    <tripinfo id="74" depart="162.00" departLane="E0_0" departPos="5.10" departSpeed="4.62" departDelay="86.00" arrival="278.00" arrivalLane="E3_0" arrivalPos="90.46" arrivalSpeed="29.57" duration="116.00" routeLength="1314.99" waitingTime="0.00" waitingCount="0" stopTime="0.00" timeLoss="43.86" rerouteNo="0" devices="tripinfo_74" vType="DEFAULT_VEHTYPE" speedFactor="1.14" vaporized=""/>
    <tripinfo id="77" depart="169.00" departLane="E0_0" departPos="5.10" departSpeed="2.69" departDelay="89.00" arrival="279.00" arrivalLane="E3_0" arrivalPos="90.46" arrivalSpeed="28.76" duration="110.00" routeLength="1314.99" waitingTime="0.00" waitingCount="0" stopTime="0.00" timeLoss="25.14" rerouteNo="0" devices="tripinfo_77" vType="DEFAULT_VEHTYPE" speedFactor="0.97" vaporized=""/>
    <tripinfo id="78" depart="172.00" departLane="E0_0" departPos="5.10" departSpeed="1.91" departDelay="90.00" arrival="280.00" arrivalLane="E3_0" arrivalPos="90.46" arrivalSpeed="28.23" duration="108.00" routeLength="1314.99" waitingTime="0.00" waitingCount="0" stopTime="0.00" timeLoss="21.75" rerouteNo="0" devices="tripinfo_78" vType="DEFAULT_VEHTYPE" speedFactor="0.95" vaporized=""/>
    <tripinfo id="79" depart="175.00" departLane="E0_0" departPos="5.10" departSpeed="5.77" departDelay="89.00" arrival="282.00" arrivalLane="E3_0" arrivalPos="90.46" arrivalSpeed="30.93" duration="107.00" routeLength="1314.99" waitingTime="0.00" waitingCount="0" stopTime="0.00" timeLoss="30.03" rerouteNo="0" devices="tripinfo_79" vType="DEFAULT_VEHTYPE" speedFactor="1.07" vaporized=""/>
    <tripinfo id="81" depart="179.00" departLane="E0_0" departPos="5.10" departSpeed="6.11" departDelay="93.00" arrival="283.00" arrivalLane="E3_0" arrivalPos="90.46" arrivalSpeed="29.75" duration="104.00" routeLength="1314.99" waitingTime="0.00" waitingCount="0" stopTime="0.00" timeLoss="24.61" rerouteNo="0" devices="tripinfo_81" vType="DEFAULT_VEHTYPE" speedFactor="1.03" vaporized=""/>
    <tripinfo id="82" depart="181.00" departLane="E0_0" departPos="5.10" departSpeed="4.43" departDelay="93.00" arrival="287.00" arrivalLane="E3_0" arrivalPos="90.46" arrivalSpeed="28.68" duration="106.00" routeLength="1314.99" waitingTime="0.00" waitingCount="0" stopTime="0.00" timeLoss="21.38" rerouteNo="0" devices="tripinfo_82" vType="DEFAULT_VEHTYPE" speedFactor="0.98" vaporized=""/>
    <tripinfo id="84" depart="186.00" departLane="E0_0" departPos="5.10" departSpeed="4.33" departDelay="95.00" arrival="288.00" arrivalLane="E3_0" arrivalPos="90.46" arrivalSpeed="31.48" duration="102.00" routeLength="1314.99" waitingTime="0.00" waitingCount="0" stopTime="0.00" timeLoss="36.05" rerouteNo="0" devices="tripinfo_84" vType="DEFAULT_VEHTYPE" speedFactor="1.25" vaporized=""/>
    <tripinfo id="17" depart="26.00" departLane="E0_0" departPos="5.10" departSpeed="3.28" departDelay="11.00" arrival="297.00" arrivalLane="E3_0" arrivalPos="90.46" arrivalSpeed="24.13" duration="271.00" routeLength="1317.38" waitingTime="123.00" waitingCount="5" stopTime="0.00" timeLoss="186.20" rerouteNo="0" devices="tripinfo_17" vType="DEFAULT_VEHTYPE" speedFactor="1.01" vaporized=""/>
    <tripinfo id="85" depart="188.00" departLane="E0_0" departPos="5.10" departSpeed="2.56" departDelay="96.00" arrival="303.00" arrivalLane="E3_0" arrivalPos="90.46" arrivalSpeed="24.93" duration="115.00" routeLength="1314.99" waitingTime="0.00" waitingCount="0" stopTime="0.00" timeLoss="20.39" rerouteNo="0" devices="tripinfo_85" vType="DEFAULT_VEHTYPE" speedFactor="0.87" vaporized=""/>
    <tripinfo id="87" depart="193.00" departLane="E0_0" departPos="5.10" departSpeed="6.71" departDelay="97.00" arrival="305.00" arrivalLane="E3_0" arrivalPos="90.46" arrivalSpeed="29.05" duration="112.00" routeLength="1314.99" waitingTime="0.00" waitingCount="0" stopTime="0.00" timeLoss="36.84" rerouteNo="0" devices="tripinfo_87" vType="DEFAULT_VEHTYPE" speedFactor="1.10" vaporized=""/>
    <tripinfo id="88" depart="195.00" departLane="E0_0" departPos="5.10" departSpeed="2.69" departDelay="98.00" arrival="306.00" arrivalLane="E3_0" arrivalPos="90.46" arrivalSpeed="28.91" duration="111.00" routeLength="1314.99" waitingTime="0.00" waitingCount="0" stopTime="0.00" timeLoss="26.49" rerouteNo="0" devices="tripinfo_88" vType="DEFAULT_VEHTYPE" speedFactor="0.97" vaporized=""/>
    <tripinfo id="90" depart="200.00" departLane="E0_0" departPos="5.10" departSpeed="2.15" departDelay="103.00" arrival="308.00" arrivalLane="E3_0" arrivalPos="90.46" arrivalSpeed="29.62" duration="108.00" routeLength="1314.99" waitingTime="0.00" waitingCount="0" stopTime="0.00" timeLoss="34.87" rerouteNo="0" devices="tripinfo_90" vType="DEFAULT_VEHTYPE" speedFactor="1.13" vaporized=""/>
    <tripinfo id="91" depart="203.00" departLane="E0_0" departPos="5.10" departSpeed="4.95" departDelay="106.00" arrival="309.00" arrivalLane="E3_0" arrivalPos="90.46" arrivalSpeed="28.95" duration="106.00" routeLength="1314.99" waitingTime="0.00" waitingCount="0" stopTime="0.00" timeLoss="22.71" rerouteNo="0" devices="tripinfo_91" vType="DEFAULT_VEHTYPE" speedFactor="0.99" vaporized=""/>
    <tripinfo id="95" depart="213.00" departLane="E0_0" departPos="5.10" departSpeed="4.69" departDelay="114.00" arrival="314.00" arrivalLane="E3_0" arrivalPos="90.46" arrivalSpeed="30.09" duration="101.00" routeLength="1314.99" waitingTime="0.00" waitingCount="0" stopTime="0.00" timeLoss="20.85" rerouteNo="0" devices="tripinfo_95" vType="DEFAULT_VEHTYPE" speedFactor="1.02" vaporized=""/>
    <tripinfo id="97" depart="217.00" departLane="E0_0" departPos="5.10" departSpeed="5.19" departDelay="116.00" arrival="320.00" arrivalLane="E3_0" arrivalPos="90.46" arrivalSpeed="29.72" duration="103.00" routeLength="1314.99" waitingTime="0.00" waitingCount="0" stopTime="0.00" timeLoss="22.68" rerouteNo="0" devices="tripinfo_97" vType="DEFAULT_VEHTYPE" speedFactor="1.03" vaporized=""/>
    <tripinfo id="98" depart="219.00" departLane="E0_0" departPos="5.10" departSpeed="4.68" departDelay="118.00" arrival="324.00" arrivalLane="E3_0" arrivalPos="90.46" arrivalSpeed="29.10" duration="105.00" routeLength="1314.99" waitingTime="0.00" waitingCount="0" stopTime="0.00" timeLoss="22.45" rerouteNo="0" devices="tripinfo_98" vType="DEFAULT_VEHTYPE" speedFactor="1.00" vaporized=""/>
    <tripinfo id="99" depart="221.00" departLane="E0_0" departPos="5.10" departSpeed="4.51" departDelay="119.00" arrival="325.00" arrivalLane="E3_0" arrivalPos="90.46" arrivalSpeed="30.21" duration="104.00" routeLength="1314.99" waitingTime="0.00" waitingCount="0" stopTime="0.00" timeLoss="30.27" rerouteNo="0" devices="tripinfo_99" vType="DEFAULT_VEHTYPE" speedFactor="1.12" vaporized=""/>
    <tripinfo id="101" depart="227.00" departLane="E0_0" departPos="5.10" departSpeed="5.46" departDelay="123.00" arrival="329.00" arrivalLane="E3_0" arrivalPos="90.46" arrivalSpeed="30.39" duration="102.00" routeLength="1314.99" waitingTime="0.00" waitingCount="0" stopTime="0.00" timeLoss="22.17" rerouteNo="0" devices="tripinfo_101" vType="DEFAULT_VEHTYPE" speedFactor="1.03" vaporized=""/>
    <tripinfo id="103" depart="231.00" departLane="E0_0" departPos="5.10" departSpeed="0.75" departDelay="125.00" arrival="333.00" arrivalLane="E3_0" arrivalPos="90.46" arrivalSpeed="30.11" duration="102.00" routeLength="1314.99" waitingTime="0.00" waitingCount="0" stopTime="0.00" timeLoss="22.99" rerouteNo="0" devices="tripinfo_103" vType="DEFAULT_VEHTYPE" speedFactor="1.04" vaporized=""/>
    <tripinfo id="105" depart="237.00" departLane="E0_0" departPos="5.10" departSpeed="4.09" departDelay="131.00" arrival="340.00" arrivalLane="E3_0" arrivalPos="90.46" arrivalSpeed="29.24" duration="103.00" routeLength="1314.99" waitingTime="0.00" waitingCount="0" stopTime="0.00" timeLoss="21.56" rerouteNo="0" devices="tripinfo_105" vType="DEFAULT_VEHTYPE" speedFactor="1.01" vaporized=""/>