<?xml version="1.0" encoding="UTF-8"?>

<!-- generated on 2023-04-28 23:16:43 by Eclipse SUMO sumo Version 1.16.0
<configuration xmlns:xsi="http://www.w3.org/2001/XMLSchema-instance" xsi:noNamespaceSchemaLocation="http://sumo.dlr.de/xsd/sumoConfiguration.xsd">

    <input>
        <net-file value="C:\Users\Local_Man\Desktop\Stolen%20Music\school%20stuff%20for%20college\Semester%2015%20(UH%20Graduate%20School)\COSC%206364%20Nikolaos\SUMO_Project\COSC6364_Project\configurations\maps\Braess_Homebrew_fixed1.net.xml"/>
        <route-files value="./configurations/Rounds/Braess_Homebrew_fixed1.net.xml-test-2/Macroscopic_DUE/027/Trips_File_027.rou.xml"/>
    </input>

    <output>
        <summary-output value="./configurations/Rounds/Braess_Homebrew_fixed1.net.xml-test-2/Macroscopic_DUE/027/summary.xml"/>
        <tripinfo-output value="./configurations/Rounds/Braess_Homebrew_fixed1.net.xml-test-2/Macroscopic_DUE/027/trips.trips.xml"/>
        <statistic-output value="./configurations/Rounds/Braess_Homebrew_fixed1.net.xml-test-2/Macroscopic_DUE/027/stats_output.xml"/>
    </output>

    <time>
        <begin value="0"/>
    </time>

    <report>
        <log value="./configurations/Rounds/Braess_Homebrew_fixed1.net.xml-test-2/Macroscopic_DUE/027/log.sumo.log"/>
        <no-step-log value="true"/>
    </report>

    <gui_only>
        <quit-on-end value="true"/>
    </gui_only>

</configuration>
-->

<tripinfos xmlns:xsi="http://www.w3.org/2001/XMLSchema-instance" xsi:noNamespaceSchemaLocation="http://sumo.dlr.de/xsd/tripinfo_file.xsd">
    <tripinfo id="3" depart="4.00" departLane="E0_0" departPos="5.10" departSpeed="16.96" departDelay="1.00" arrival="90.00" arrivalLane="E3_0" arrivalPos="90.46" arrivalSpeed="31.61" duration="86.00" routeLength="1314.99" waitingTime="0.00" waitingCount="0" stopTime="0.00" timeLoss="9.69" rerouteNo="0" devices="tripinfo_3" vType="DEFAULT_VEHTYPE" speedFactor="1.08" vaporized=""/>
    <tripinfo id="5" depart="9.00" departLane="E0_0" departPos="5.10" departSpeed="20.92" departDelay="0.00" arrival="98.00" arrivalLane="E3_0" arrivalPos="90.46" arrivalSpeed="30.52" duration="89.00" routeLength="1314.99" waitingTime="0.00" waitingCount="0" stopTime="0.00" timeLoss="10.16" rerouteNo="0" devices="tripinfo_5" vType="DEFAULT_VEHTYPE" speedFactor="1.05" vaporized=""/>
    <tripinfo id="6" depart="10.00" departLane="E0_0" departPos="5.10" departSpeed="18.18" departDelay="0.00" arrival="99.00" arrivalLane="E3_0" arrivalPos="90.46" arrivalSpeed="32.07" duration="89.00" routeLength="1314.99" waitingTime="0.00" waitingCount="0" stopTime="0.00" timeLoss="13.10" rerouteNo="0" devices="tripinfo_6" vType="DEFAULT_VEHTYPE" speedFactor="1.08" vaporized=""/>
    <tripinfo id="8" depart="14.00" departLane="E0_0" departPos="5.10" departSpeed="19.85" departDelay="0.00" arrival="108.00" arrivalLane="E3_0" arrivalPos="90.46" arrivalSpeed="29.92" duration="94.00" routeLength="1314.99" waitingTime="0.00" waitingCount="0" stopTime="0.00" timeLoss="13.29" rerouteNo="0" devices="tripinfo_8" vType="DEFAULT_VEHTYPE" speedFactor="1.02" vaporized=""/>
    <tripinfo id="11" depart="17.00" departLane="E0_0" departPos="5.10" departSpeed="10.77" departDelay="0.00" arrival="110.00" arrivalLane="E3_0" arrivalPos="90.46" arrivalSpeed="32.55" duration="93.00" routeLength="1314.99" waitingTime="0.00" waitingCount="0" stopTime="0.00" timeLoss="19.32" rerouteNo="0" devices="tripinfo_11" vType="DEFAULT_VEHTYPE" speedFactor="1.12" vaporized=""/>
    <tripinfo id="12" depart="20.00" departLane="E0_0" departPos="5.10" departSpeed="15.01" departDelay="0.00" arrival="127.00" arrivalLane="E3_0" arrivalPos="90.46" arrivalSpeed="26.23" duration="107.00" routeLength="1314.99" waitingTime="0.00" waitingCount="0" stopTime="0.00" timeLoss="15.95" rerouteNo="0" devices="tripinfo_12" vType="DEFAULT_VEHTYPE" speedFactor="0.90" vaporized=""/>
    <tripinfo id="14" depart="22.00" departLane="E0_0" departPos="5.10" departSpeed="8.85" departDelay="0.00" arrival="129.00" arrivalLane="E3_0" arrivalPos="90.46" arrivalSpeed="28.92" duration="107.00" routeLength="1314.99" waitingTime="0.00" waitingCount="0" stopTime="0.00" timeLoss="28.18" rerouteNo="0" devices="tripinfo_14" vType="DEFAULT_VEHTYPE" speedFactor="1.04" vaporized=""/>
    <tripinfo id="18" depart="30.00" departLane="E0_0" departPos="5.10" departSpeed="0.29" departDelay="6.00" arrival="130.00" arrivalLane="E3_0" arrivalPos="90.46" arrivalSpeed="29.02" duration="100.00" routeLength="1314.99" waitingTime="0.00" waitingCount="0" stopTime="0.00" timeLoss="20.27" rerouteNo="0" devices="tripinfo_18" vType="DEFAULT_VEHTYPE" speedFactor="1.03" vaporized=""/>
    <tripinfo id="20" depart="36.00" departLane="E0_0" departPos="5.10" departSpeed="5.87" departDelay="7.00" arrival="135.00" arrivalLane="E3_0" arrivalPos="90.46" arrivalSpeed="29.29" duration="99.00" routeLength="1314.99" waitingTime="0.00" waitingCount="0" stopTime="0.00" timeLoss="18.03" rerouteNo="0" devices="tripinfo_20" vType="DEFAULT_VEHTYPE" speedFactor="1.01" vaporized=""/>
    <tripinfo id="2" depart="3.00" departLane="E0_0" departPos="5.10" departSpeed="19.50" departDelay="0.00" arrival="145.00" arrivalLane="E3_0" arrivalPos="90.46" arrivalSpeed="25.13" duration="142.00" routeLength="1317.38" waitingTime="38.00" waitingCount="1" stopTime="0.00" timeLoss="53.67" rerouteNo="0" devices="tripinfo_2" vType="DEFAULT_VEHTYPE" speedFactor="0.98" vaporized=""/>
    <tripinfo id="21" depart="38.00" departLane="E0_0" departPos="5.10" departSpeed="6.43" departDelay="7.00" arrival="149.00" arrivalLane="E3_0" arrivalPos="90.46" arrivalSpeed="26.06" duration="111.00" routeLength="1314.99" waitingTime="0.00" waitingCount="0" stopTime="0.00" timeLoss="17.18" rerouteNo="0" devices="tripinfo_21" vType="DEFAULT_VEHTYPE" speedFactor="0.87" vaporized=""/>
    <tripinfo id="22" depart="40.00" departLane="E0_0" departPos="5.10" departSpeed="6.04" departDelay="8.00" arrival="151.00" arrivalLane="E3_0" arrivalPos="90.46" arrivalSpeed="29.78" duration="111.00" routeLength="1314.99" waitingTime="0.00" waitingCount="0" stopTime="0.00" timeLoss="31.47" rerouteNo="0" devices="tripinfo_22" vType="DEFAULT_VEHTYPE" speedFactor="1.03" vaporized=""/>
    <tripinfo id="23" depart="42.00" departLane="E0_0" departPos="5.10" departSpeed="5.86" departDelay="10.00" arrival="152.00" arrivalLane="E3_0" arrivalPos="90.46" arrivalSpeed="30.27" duration="110.00" routeLength="1314.99" waitingTime="0.00" waitingCount="0" stopTime="0.00" timeLoss="37.63" rerouteNo="0" devices="tripinfo_23" vType="DEFAULT_VEHTYPE" speedFactor="1.13" vaporized=""/>
    <tripinfo id="24" depart="44.00" departLane="E0_0" departPos="5.10" departSpeed="5.52" departDelay="11.00" arrival="155.00" arrivalLane="E3_0" arrivalPos="90.46" arrivalSpeed="25.81" duration="111.00" routeLength="1314.99" waitingTime="0.00" waitingCount="0" stopTime="0.00" timeLoss="19.14" rerouteNo="0" devices="tripinfo_24" vType="DEFAULT_VEHTYPE" speedFactor="0.89" vaporized=""/>
    <tripinfo id="25" depart="46.00" departLane="E0_0" departPos="5.10" departSpeed="6.25" departDelay="13.00" arrival="157.00" arrivalLane="E3_0" arrivalPos="90.46" arrivalSpeed="31.42" duration="111.00" routeLength="1314.99" waitingTime="0.00" waitingCount="0" stopTime="0.00" timeLoss="39.14" rerouteNo="0" devices="tripinfo_25" vType="DEFAULT_VEHTYPE" speedFactor="1.15" vaporized=""/>
    <tripinfo id="26" depart="48.00" departLane="E0_0" departPos="5.10" departSpeed="4.09" departDelay="14.00" arrival="158.00" arrivalLane="E3_0" arrivalPos="90.46" arrivalSpeed="29.73" duration="110.00" routeLength="1314.99" waitingTime="0.00" waitingCount="0" stopTime="0.00" timeLoss="36.61" rerouteNo="0" devices="tripinfo_26" vType="DEFAULT_VEHTYPE" speedFactor="1.12" vaporized=""/>
    <tripinfo id="27" depart="50.00" departLane="E0_0" departPos="5.10" departSpeed="1.25" departDelay="15.00" arrival="159.00" arrivalLane="E3_0" arrivalPos="90.46" arrivalSpeed="28.62" duration="109.00" routeLength="1314.99" waitingTime="0.00" waitingCount="0" stopTime="0.00" timeLoss="26.77" rerouteNo="0" devices="tripinfo_27" vType="DEFAULT_VEHTYPE" speedFactor="0.99" vaporized=""/>
    <tripinfo id="28" depart="53.00" departLane="E0_0" departPos="5.10" departSpeed="2.12" departDelay="18.00" arrival="161.00" arrivalLane="E3_0" arrivalPos="90.46" arrivalSpeed="28.64" duration="108.00" routeLength="1314.99" waitingTime="0.00" waitingCount="0" stopTime="0.00" timeLoss="23.44" rerouteNo="0" devices="tripinfo_28" vType="DEFAULT_VEHTYPE" speedFactor="0.97" vaporized=""/>
    <tripinfo id="30" depart="59.00" departLane="E0_0" departPos="5.10" departSpeed="6.40" departDelay="22.00" arrival="166.00" arrivalLane="E3_0" arrivalPos="90.46" arrivalSpeed="27.16" duration="107.00" routeLength="1314.99" waitingTime="0.00" waitingCount="0" stopTime="0.00" timeLoss="19.64" rerouteNo="0" devices="tripinfo_30" vType="DEFAULT_VEHTYPE" speedFactor="0.94" vaporized=""/>
    <tripinfo id="31" depart="61.00" departLane="E0_0" departPos="5.10" departSpeed="6.84" departDelay="24.00" arrival="167.00" arrivalLane="E3_0" arrivalPos="90.46" arrivalSpeed="29.00" duration="106.00" routeLength="1314.99" waitingTime="0.00" waitingCount="0" stopTime="0.00" timeLoss="31.93" rerouteNo="0" devices="tripinfo_31" vType="DEFAULT_VEHTYPE" speedFactor="1.10" vaporized=""/>
    <tripinfo id="33" depart="65.00" departLane="E0_0" departPos="5.10" departSpeed="8.56" departDelay="27.00" arrival="169.00" arrivalLane="E3_0" arrivalPos="90.46" arrivalSpeed="29.91" duration="104.00" routeLength="1314.99" waitingTime="0.00" waitingCount="0" stopTime="0.00" timeLoss="23.85" rerouteNo="0" devices="tripinfo_33" vType="DEFAULT_VEHTYPE" speedFactor="1.03" vaporized=""/>
    <tripinfo id="34" depart="66.00" departLane="E0_0" departPos="5.10" departSpeed="4.48" departDelay="28.00" arrival="170.00" arrivalLane="E3_0" arrivalPos="90.46" arrivalSpeed="30.52" duration="104.00" routeLength="1314.99" waitingTime="0.00" waitingCount="0" stopTime="0.00" timeLoss="27.16" rerouteNo="0" devices="tripinfo_34" vType="DEFAULT_VEHTYPE" speedFactor="1.07" vaporized=""/>
    <tripinfo id="35" depart="68.00" departLane="E0_0" departPos="5.10" departSpeed="3.46" departDelay="29.00" arrival="172.00" arrivalLane="E3_0" arrivalPos="90.46" arrivalSpeed="30.88" duration="104.00" routeLength="1314.99" waitingTime="0.00" waitingCount="0" stopTime="0.00" timeLoss="24.50" rerouteNo="0" devices="tripinfo_35" vType="DEFAULT_VEHTYPE" speedFactor="1.04" vaporized=""/>
    <tripinfo id="4" depart="8.00" departLane="E0_0" departPos="5.10" departSpeed="24.01" departDelay="0.00" arrival="181.00" arrivalLane="E3_0" arrivalPos="90.46" arrivalSpeed="25.45" duration="173.00" routeLength="1317.38" waitingTime="68.00" waitingCount="2" stopTime="0.00" timeLoss="101.79" rerouteNo="0" devices="tripinfo_4" vType="DEFAULT_VEHTYPE" speedFactor="1.20" vaporized=""/>
    <tripinfo id="37" depart="74.00" departLane="E0_0" departPos="5.10" departSpeed="2.76" departDelay="34.00" arrival="187.00" arrivalLane="E3_0" arrivalPos="90.46" arrivalSpeed="26.12" duration="113.00" routeLength="1314.99" waitingTime="0.00" waitingCount="0" stopTime="0.00" timeLoss="21.15" rerouteNo="0" devices="tripinfo_37" vType="DEFAULT_VEHTYPE" speedFactor="0.90" vaporized=""/>
    <tripinfo id="40" depart="82.00" departLane="E0_0" departPos="5.10" departSpeed="6.11" departDelay="36.00" arrival="188.00" arrivalLane="E3_0" arrivalPos="90.46" arrivalSpeed="28.13" duration="106.00" routeLength="1314.99" waitingTime="0.00" waitingCount="0" stopTime="0.00" timeLoss="28.77" rerouteNo="0" devices="tripinfo_40" vType="DEFAULT_VEHTYPE" speedFactor="1.06" vaporized=""/>
    <tripinfo id="41" depart="84.00" departLane="E0_0" departPos="5.10" departSpeed="6.19" departDelay="38.00" arrival="190.00" arrivalLane="E3_0" arrivalPos="90.46" arrivalSpeed="30.02" duration="106.00" routeLength="1314.99" waitingTime="0.00" waitingCount="0" stopTime="0.00" timeLoss="35.09" rerouteNo="0" devices="tripinfo_41" vType="DEFAULT_VEHTYPE" speedFactor="1.17" vaporized=""/>
    <tripinfo id="47" depart="98.00" departLane="E0_0" departPos="5.10" departSpeed="5.14" departDelay="46.00" arrival="197.00" arrivalLane="E3_0" arrivalPos="90.46" arrivalSpeed="29.53" duration="99.00" routeLength="1314.99" waitingTime="0.00" waitingCount="0" stopTime="0.00" timeLoss="18.98" rerouteNo="0" devices="tripinfo_47" vType="DEFAULT_VEHTYPE" speedFactor="1.02" vaporized=""/>
    <tripinfo id="48" depart="100.00" departLane="E0_0" departPos="5.10" departSpeed="3.36" departDelay="47.00" arrival="202.00" arrivalLane="E3_0" arrivalPos="90.46" arrivalSpeed="29.56" duration="102.00" routeLength="1314.99" waitingTime="0.00" waitingCount="0" stopTime="0.00" timeLoss="19.48" rerouteNo="0" devices="tripinfo_48" vType="DEFAULT_VEHTYPE" speedFactor="1.00" vaporized=""/>
    <tripinfo id="49" depart="103.00" departLane="E0_0" departPos="5.10" departSpeed="5.25" departDelay="47.00" arrival="203.00" arrivalLane="E3_0" arrivalPos="90.46" arrivalSpeed="30.51" duration="100.00" routeLength="1314.99" waitingTime="0.00" waitingCount="0" stopTime="0.00" timeLoss="26.77" rerouteNo="0" devices="tripinfo_49" vType="DEFAULT_VEHTYPE" speedFactor="1.12" vaporized=""/>
    <tripinfo id="7" depart="12.00" departLane="E0_0" departPos="5.10" departSpeed="18.76" departDelay="0.00" arrival="212.00" arrivalLane="E3_0" arrivalPos="90.46" arrivalSpeed="23.76" duration="200.00" routeLength="1317.38" waitingTime="81.00" waitingCount="3" stopTime="0.00" timeLoss="108.75" rerouteNo="0" devices="tripinfo_7" vType="DEFAULT_VEHTYPE" speedFactor="0.94" vaporized=""/>
    <tripinfo id="52" depart="111.00" departLane="E0_0" departPos="5.10" departSpeed="4.79" departDelay="52.00" arrival="215.00" arrivalLane="E3_0" arrivalPos="90.46" arrivalSpeed="27.72" duration="104.00" routeLength="1314.99" waitingTime="0.00" waitingCount="0" stopTime="0.00" timeLoss="18.11" rerouteNo="0" devices="tripinfo_52" vType="DEFAULT_VEHTYPE" speedFactor="0.96" vaporized=""/>
    <tripinfo id="53" depart="113.00" departLane="E0_0" departPos="5.10" departSpeed="3.19" departDelay="54.00" arrival="222.00" arrivalLane="E3_0" arrivalPos="90.46" arrivalSpeed="26.55" duration="109.00" routeLength="1314.99" waitingTime="0.00" waitingCount="0" stopTime="0.00" timeLoss="17.99" rerouteNo="0" devices="tripinfo_53" vType="DEFAULT_VEHTYPE" speedFactor="0.91" vaporized=""/>
    <tripinfo id="54" depart="115.00" departLane="E0_0" departPos="5.10" departSpeed="0.33" departDelay="55.00" arrival="223.00" arrivalLane="E3_0" arrivalPos="90.46" arrivalSpeed="27.77" duration="108.00" routeLength="1314.99" waitingTime="0.00" waitingCount="0" stopTime="0.00" timeLoss="21.67" rerouteNo="0" devices="tripinfo_54" vType="DEFAULT_VEHTYPE" speedFactor="0.95" vaporized=""/>
    <tripinfo id="55" depart="119.00" departLane="E0_0" departPos="5.10" departSpeed="5.21" departDelay="59.00" arrival="225.00" arrivalLane="E3_0" arrivalPos="90.46" arrivalSpeed="30.60" duration="106.00" routeLength="1314.99" waitingTime="0.00" waitingCount="0" stopTime="0.00" timeLoss="25.11" rerouteNo="0" devices="tripinfo_55" vType="DEFAULT_VEHTYPE" speedFactor="1.02" vaporized=""/>
    <tripinfo id="57" depart="123.00" departLane="E0_0" departPos="5.10" departSpeed="2.64" departDelay="62.00" arrival="226.00" arrivalLane="E3_0" arrivalPos="90.46" arrivalSpeed="30.27" duration="103.00" routeLength="1314.99" waitingTime="0.00" waitingCount="0" stopTime="0.00" timeLoss="25.06" rerouteNo="0" devices="tripinfo_57" vType="DEFAULT_VEHTYPE" speedFactor="1.06" vaporized=""/>
    <tripinfo id="58" depart="126.00" departLane="E0_0" departPos="5.10" departSpeed="1.97" departDelay="65.00" arrival="228.00" arrivalLane="E3_0" arrivalPos="90.46" arrivalSpeed="31.12" duration="102.00" routeLength="1314.99" waitingTime="0.00" waitingCount="0" stopTime="0.00" timeLoss="27.97" rerouteNo="0" devices="tripinfo_58" vType="DEFAULT_VEHTYPE" speedFactor="1.12" vaporized=""/>
    <tripinfo id="59" depart="129.00" departLane="E0_0" departPos="5.10" departSpeed="4.58" departDelay="66.00" arrival="229.00" arrivalLane="E3_0" arrivalPos="90.46" arrivalSpeed="30.23" duration="100.00" routeLength="1314.99" waitingTime="0.00" waitingCount="0" stopTime="0.00" timeLoss="20.45" rerouteNo="0" devices="tripinfo_59" vType="DEFAULT_VEHTYPE" speedFactor="1.03" vaporized=""/>
    <tripinfo id="60" depart="131.00" departLane="E0_0" departPos="5.10" departSpeed="1.34" departDelay="68.00" arrival="239.00" arrivalLane="E3_0" arrivalPos="90.46" arrivalSpeed="26.83" duration="108.00" routeLength="1314.99" waitingTime="0.00" waitingCount="0" stopTime="0.00" timeLoss="18.33" rerouteNo="0" devices="tripinfo_60" vType="DEFAULT_VEHTYPE" speedFactor="0.92" vaporized=""/>
    <tripinfo id="61" depart="134.00" departLane="E0_0" departPos="5.10" departSpeed="3.39" departDelay="70.00" arrival="240.00" arrivalLane="E3_0" arrivalPos="90.46" arrivalSpeed="29.56" duration="106.00" routeLength="1314.99" waitingTime="0.00" waitingCount="0" stopTime="0.00" timeLoss="30.33" rerouteNo="0" devices="tripinfo_61" vType="DEFAULT_VEHTYPE" speedFactor="1.09" vaporized=""/>
    <tripinfo id="63" depart="139.00" departLane="E0_0" departPos="5.10" departSpeed="0.90" departDelay="75.00" arrival="242.00" arrivalLane="E3_0" arrivalPos="90.46" arrivalSpeed="29.25" duration="103.00" routeLength="1314.99" waitingTime="0.00" waitingCount="0" stopTime="0.00" timeLoss="21.78" rerouteNo="0" devices="tripinfo_63" vType="DEFAULT_VEHTYPE" speedFactor="1.02" vaporized=""/>
    <tripinfo id="64" depart="143.00" departLane="E0_0" departPos="5.10" departSpeed="5.98" departDelay="78.00" arrival="243.00" arrivalLane="E3_0" arrivalPos="90.46" arrivalSpeed="30.73" duration="100.00" routeLength="1314.99" waitingTime="0.00" waitingCount="0" stopTime="0.00" timeLoss="24.04" rerouteNo="0" devices="tripinfo_64" vType="DEFAULT_VEHTYPE" speedFactor="1.08" vaporized=""/>
    <tripinfo id="66" depart="147.00" departLane="E0_0" departPos="5.10" departSpeed="7.16" departDelay="74.00" arrival="248.00" arrivalLane="E3_0" arrivalPos="90.46" arrivalSpeed="29.31" duration="101.00" routeLength="1314.99" waitingTime="0.00" waitingCount="0" stopTime="0.00" timeLoss="16.65" rerouteNo="0" devices="tripinfo_66" vType="DEFAULT_VEHTYPE" speedFactor="0.98" vaporized=""/>
    <tripinfo id="67" depart="149.00" departLane="E0_0" departPos="5.10" departSpeed="7.81" departDelay="73.00" arrival="249.00" arrivalLane="E3_0" arrivalPos="90.46" arrivalSpeed="29.56" duration="100.00" routeLength="1314.99" waitingTime="0.00" waitingCount="0" stopTime="0.00" timeLoss="18.33" rerouteNo="0" devices="tripinfo_67" vType="DEFAULT_VEHTYPE" speedFactor="1.01" vaporized=""/>
    <tripinfo id="9" depart="15.00" departLane="E0_0" departPos="5.10" departSpeed="17.59" departDelay="0.00" arrival="258.00" arrivalLane="E3_0" arrivalPos="90.46" arrivalSpeed="23.70" duration="243.00" routeLength="1317.38" waitingTime="117.00" waitingCount="4" stopTime="0.00" timeLoss="164.68" rerouteNo="0" devices="tripinfo_9" vType="DEFAULT_VEHTYPE" speedFactor="1.09" vaporized=""/>
    <tripinfo id="10" depart="16.00" departLane="E0_0" departPos="5.10" departSpeed="14.43" departDelay="1.00" arrival="260.00" arrivalLane="E3_0" arrivalPos="90.46" arrivalSpeed="24.86" duration="244.00" routeLength="1317.38" waitingTime="115.00" waitingCount="4" stopTime="0.00" timeLoss="151.25" rerouteNo="0" devices="tripinfo_10" vType="DEFAULT_VEHTYPE" speedFactor="0.92" vaporized=""/>
    <tripinfo id="13" depart="21.00" departLane="E0_0" departPos="5.10" departSpeed="11.83" departDelay="1.00" arrival="263.00" arrivalLane="E3_0" arrivalPos="90.46" arrivalSpeed="26.70" duration="242.00" routeLength="1317.38" waitingTime="107.00" waitingCount="4" stopTime="0.00" timeLoss="149.15" rerouteNo="0" devices="tripinfo_13" vType="DEFAULT_VEHTYPE" speedFactor="0.93" vaporized=""/>
    <tripinfo id="69" depart="152.00" departLane="E0_0" departPos="5.10" departSpeed="4.56" departDelay="76.00" arrival="269.00" arrivalLane="E3_0" arrivalPos="90.46" arrivalSpeed="24.61" duration="117.00" routeLength="1314.99" waitingTime="0.00" waitingCount="0" stopTime="0.00" timeLoss="18.39" rerouteNo="0" devices="tripinfo_69" vType="DEFAULT_VEHTYPE" speedFactor="0.83" vaporized=""/>
    <tripinfo id="70" depart="154.00" departLane="E0_0" departPos="5.10" departSpeed="1.66" departDelay="75.00" arrival="270.00" arrivalLane="E3_0" arrivalPos="90.46" arrivalSpeed="25.47" duration="116.00" routeLength="1314.99" waitingTime="0.00" waitingCount="0" stopTime="0.00" timeLoss="38.23" rerouteNo="0" devices="tripinfo_70" vType="DEFAULT_VEHTYPE" speedFactor="1.05" vaporized=""/>
    <tripinfo id="71" depart="157.00" departLane="E0_0" departPos="5.10" departSpeed="2.98" departDelay="77.00" arrival="272.00" arrivalLane="E3_0" arrivalPos="90.46" arrivalSpeed="26.86" duration="115.00" routeLength="1314.99" waitingTime="0.00" waitingCount="0" stopTime="0.00" timeLoss="37.09" rerouteNo="0" devices="tripinfo_71" vType="DEFAULT_VEHTYPE" speedFactor="1.06" vaporized=""/>
    <tripinfo id="72" depart="160.00" departLane="E0_0" departPos="5.10" departSpeed="3.72" departDelay="77.00" arrival="275.00" arrivalLane="E3_0" arrivalPos="90.46" arrivalSpeed="25.75" duration="115.00" routeLength="1314.99" waitingTime="0.00" waitingCount="0" stopTime="0.00" timeLoss="19.32" rerouteNo="0" devices="tripinfo_72" vType="DEFAULT_VEHTYPE" speedFactor="0.86" vaporized=""/>
    <tripinfo id="73" depart="162.00" departLane="E0_0" departPos="5.10" departSpeed="2.04" departDelay="75.00" arrival="276.00" arrivalLane="E3_0" arrivalPos="90.46" arrivalSpeed="26.14" duration="114.00" routeLength="1314.99" waitingTime="0.00" waitingCount="0" stopTime="0.00" timeLoss="23.25" rerouteNo="0" devices="tripinfo_73" vType="DEFAULT_VEHTYPE" speedFactor="0.91" vaporized=""/>
    <tripinfo id="74" depart="165.00" departLane="E0_0" departPos="5.10" departSpeed="4.85" departDelay="78.00" arrival="278.00" arrivalLane="E3_0" arrivalPos="90.46" arrivalSpeed="28.65" duration="113.00" routeLength="1314.99" waitingTime="0.00" waitingCount="0" stopTime="0.00" timeLoss="40.65" rerouteNo="0" devices="tripinfo_74" vType="DEFAULT_VEHTYPE" speedFactor="1.14" vaporized=""/>
    <tripinfo id="77" depart="171.00" departLane="E0_0" departPos="5.10" departSpeed="1.17" departDelay="79.00" arrival="279.00" arrivalLane="E3_0" arrivalPos="90.46" arrivalSpeed="28.18" duration="108.00" routeLength="1314.99" waitingTime="0.00" waitingCount="0" stopTime="0.00" timeLoss="22.80" rerouteNo="0" devices="tripinfo_77" vType="DEFAULT_VEHTYPE" speedFactor="0.97" vaporized=""/>
    <tripinfo id="78" depart="175.00" departLane="E0_0" departPos="5.10" departSpeed="5.46" departDelay="82.00" arrival="280.00" arrivalLane="E3_0" arrivalPos="90.46" arrivalSpeed="27.55" duration="105.00" routeLength="1314.99" waitingTime="0.00" waitingCount="0" stopTime="0.00" timeLoss="18.91" rerouteNo="0" devices="tripinfo_78" vType="DEFAULT_VEHTYPE" speedFactor="0.95" vaporized=""/>
    <tripinfo id="79" depart="177.00" departLane="E0_0" departPos="5.10" departSpeed="5.29" departDelay="83.00" arrival="282.00" arrivalLane="E3_0" arrivalPos="90.46" arrivalSpeed="31.44" duration="105.00" routeLength="1314.99" waitingTime="0.00" waitingCount="0" stopTime="0.00" timeLoss="28.13" rerouteNo="0" devices="tripinfo_79" vType="DEFAULT_VEHTYPE" speedFactor="1.07" vaporized=""/>
    <tripinfo id="81" depart="181.00" departLane="E0_0" departPos="5.10" departSpeed="5.61" departDelay="85.00" arrival="283.00" arrivalLane="E3_0" arrivalPos="90.46" arrivalSpeed="31.03" duration="102.00" routeLength="1314.99" waitingTime="0.00" waitingCount="0" stopTime="0.00" timeLoss="22.80" rerouteNo="0" devices="tripinfo_81" vType="DEFAULT_VEHTYPE" speedFactor="1.03" vaporized=""/>
    <tripinfo id="82" depart="183.00" departLane="E0_0" departPos="5.10" departSpeed="6.35" departDelay="87.00" arrival="286.00" arrivalLane="E3_0" arrivalPos="90.46" arrivalSpeed="28.04" duration="103.00" routeLength="1314.99" waitingTime="0.00" waitingCount="0" stopTime="0.00" timeLoss="18.77" rerouteNo="0" devices="tripinfo_82" vType="DEFAULT_VEHTYPE" speedFactor="0.98" vaporized=""/>
    <tripinfo id="84" depart="187.00" departLane="E0_0" departPos="5.10" departSpeed="7.61" departDelay="90.00" arrival="287.00" arrivalLane="E3_0" arrivalPos="90.46" arrivalSpeed="30.31" duration="100.00" routeLength="1314.99" waitingTime="0.00" waitingCount="0" stopTime="0.00" timeLoss="34.43" rerouteNo="0" devices="tripinfo_84" vType="DEFAULT_VEHTYPE" speedFactor="1.25" vaporized=""/>
    <tripinfo id="15" depart="23.00" departLane="E0_0" departPos="5.10" departSpeed="4.38" departDelay="0.00" arrival="297.00" arrivalLane="E3_0" arrivalPos="90.46" arrivalSpeed="26.41" duration="274.00" routeLength="1317.38" waitingTime="128.00" waitingCount="5" stopTime="0.00" timeLoss="181.91" rerouteNo="0" devices="tripinfo_15" vType="DEFAULT_VEHTYPE" speedFactor="0.94" vaporized=""/>
    <tripinfo id="85" depart="189.00" departLane="E0_0" departPos="5.10" departSpeed="8.44" departDelay="88.00" arrival="303.00" arrivalLane="E3_0" arrivalPos="90.46" arrivalSpeed="25.38" duration="114.00" routeLength="1314.99" waitingTime="0.00" waitingCount="0" stopTime="0.00" timeLoss="19.46" rerouteNo="0" devices="tripinfo_85" vType="DEFAULT_VEHTYPE" speedFactor="0.87" vaporized=""/>
    <tripinfo id="87" depart="193.00" departLane="E0_0" departPos="5.10" departSpeed="5.16" departDelay="91.00" arrival="305.00" arrivalLane="E3_0" arrivalPos="90.46" arrivalSpeed="29.23" duration="112.00" routeLength="1314.99" waitingTime="0.00" waitingCount="0" stopTime="0.00" timeLoss="36.96" rerouteNo="0" devices="tripinfo_87" vType="DEFAULT_VEHTYPE" speedFactor="1.10" vaporized=""/>
    <tripinfo id="88" depart="195.00" departLane="E0_0" departPos="5.10" departSpeed="4.76" departDelay="91.00" arrival="306.00" arrivalLane="E3_0" arrivalPos="90.46" arrivalSpeed="28.00" duration="111.00" routeLength="1314.99" waitingTime="0.00" waitingCount="0" stopTime="0.00" timeLoss="26.57" rerouteNo="0" devices="tripinfo_88" vType="DEFAULT_VEHTYPE" speedFactor="0.97" vaporized=""/>
    <tripinfo id="90" depart="201.00" departLane="E0_0" departPos="5.10" departSpeed="6.32" departDelay="95.00" arrival="308.00" arrivalLane="E3_0" arrivalPos="90.46" arrivalSpeed="29.10" duration="107.00" routeLength="1314.99" waitingTime="0.00" waitingCount="0" stopTime="0.00" timeLoss="33.89" rerouteNo="0" devices="tripinfo_90" vType="DEFAULT_VEHTYPE" speedFactor="1.13" vaporized=""/>
    <tripinfo id="91" depart="203.00" departLane="E0_0" departPos="5.10" departSpeed="6.37" departDelay="97.00" arrival="309.00" arrivalLane="E3_0" arrivalPos="90.46" arrivalSpeed="28.68" duration="106.00" routeLength="1314.99" waitingTime="0.00" waitingCount="0" stopTime="0.00" timeLoss="22.98" rerouteNo="0" devices="tripinfo_91" vType="DEFAULT_VEHTYPE" speedFactor="0.99" vaporized=""/>
    <tripinfo id="95" depart="212.00" departLane="E0_0" departPos="5.10" departSpeed="4.79" departDelay="95.00" arrival="311.00" arrivalLane="E3_0" arrivalPos="90.46" arrivalSpeed="29.91" duration="99.00" routeLength="1314.99" waitingTime="0.00" waitingCount="0" stopTime="0.00" timeLoss="18.98" rerouteNo="0" devices="tripinfo_95" vType="DEFAULT_VEHTYPE" speedFactor="1.02" vaporized=""/>
    <tripinfo id="97" depart="216.00" departLane="E0_0" departPos="5.10" departSpeed="5.10" departDelay="99.00" arrival="316.00" arrivalLane="E3_0" arrivalPos="90.46" arrivalSpeed="30.35" duration="100.00" routeLength="1314.99" waitingTime="0.00" waitingCount="0" stopTime="0.00" timeLoss="20.56" rerouteNo="0" devices="tripinfo_97" vType="DEFAULT_VEHTYPE" speedFactor="1.03" vaporized=""/>
    <tripinfo id="98" depart="218.00" departLane="E0_0" departPos="5.10" departSpeed="2.79" departDelay="97.00" arrival="321.00" arrivalLane="E3_0" arrivalPos="90.46" arrivalSpeed="29.30" duration="103.00" routeLength="1314.99" waitingTime="0.00" waitingCount="0" stopTime="0.00" timeLoss="20.83" rerouteNo="0" devices="tripinfo_98" vType="DEFAULT_VEHTYPE" speedFactor="1.00" vaporized=""/>
    <tripinfo id="99" depart="221.00" departLane="E0_0" departPos="5.10" departSpeed="5.00" departDelay="100.00" arrival="322.00" arrivalLane="E3_0" arrivalPos="90.46" arrivalSpeed="30.84" duration="101.00" routeLength="1314.99" waitingTime="0.00" waitingCount="0" stopTime="0.00" timeLoss="27.67" rerouteNo="0" devices="tripinfo_99" vType="DEFAULT_VEHTYPE" speedFactor="1.12" vaporized=""/>
    <tripinfo id="101" depart="225.00" departLane="E0_0" departPos="5.10" departSpeed="0.43" departDelay="102.00" arrival="326.00" arrivalLane="E3_0" arrivalPos="90.46" arrivalSpeed="30.10" duration="101.00" routeLength="1314.99" waitingTime="0.00" waitingCount="0" stopTime="0.00" timeLoss="21.07" rerouteNo="0" devices="tripinfo_101" vType="DEFAULT_VEHTYPE" speedFactor="1.03" vaporized=""/>
    <tripinfo id="103" depart="231.00" departLane="E0_0" departPos="5.10" departSpeed="5.26" departDelay="107.00" arrival="331.00" arrivalLane="E3_0" arrivalPos="90.46" arrivalSpeed="30.34" duration="100.00" routeLength="1314.99" waitingTime="0.00" waitingCount="0" stopTime="0.00" timeLoss="20.59" rerouteNo="0" devices="tripinfo_103" vType="DEFAULT_VEHTYPE" speedFactor="1.04" vaporized=""/>
    <tripinfo id="105" depart="235.00" departLane="E0_0" departPos="5.10" departSpeed="5.66" departDelay="108.00" arrival="337.00" arrivalLane="E3_0" arrivalPos="90.46" arrivalSpeed="29.50" duration="102.00" routeLength="1314.99" waitingTime="0.00" waitingCount="0" stopTime="0.00" timeLoss="20.97" rerouteNo="0" devices="tripinfo_105" vType="DEFAULT_VEHTYPE" speedFactor="1.01" vaporized=""/>