<?xml version="1.0" encoding="UTF-8"?>

<!-- generated on 2023-04-29 21:37:45 by Eclipse SUMO sumo Version 1.16.0
<configuration xmlns:xsi="http://www.w3.org/2001/XMLSchema-instance" xsi:noNamespaceSchemaLocation="http://sumo.dlr.de/xsd/sumoConfiguration.xsd">

    <input>
        <net-file value="022/../configurations/maps/4corners_neighborhoods.net.xml"/>
        <route-files value="022/Trips_File_022.rou.xml"/>
        <additional-files value="022/../edgedata.add.xml"/>
    </input>

    <output>
        <output-prefix value="022/"/>
        <summary-output value="022/../summary_022.xml"/>
        <tripinfo-output value="022/../tripinfo_022.xml"/>
    </output>

    <time>
        <begin value="0"/>
    </time>

    <processing>
        <route-steps value="200"/>
        <no-internal-links value="False"/>
        <time-to-teleport value="300"/>
        <time-to-teleport.highways value="0"/>
        <eager-insert value="False"/>
    </processing>

    <report>
        <verbose value="true"/>
        <no-warnings value="False"/>
        <log value="022/../iteration_022.sumo.log"/>
        <no-step-log value="true"/>
    </report>

    <random_number>
        <random value="False"/>
    </random_number>

</configuration>
-->

<tripinfos xmlns:xsi="http://www.w3.org/2001/XMLSchema-instance" xsi:noNamespaceSchemaLocation="http://sumo.dlr.de/xsd/tripinfo_file.xsd">
    <tripinfo id="4" depart="3.00" departLane="597602753#0_0" departPos="5.10" departSpeed="0.00" departDelay="0.00" arrival="78.00" arrivalLane="-105681660#20_0" arrivalPos="806.12" arrivalSpeed="21.54" duration="75.00" routeLength="1387.70" waitingTime="0.00" waitingCount="0" stopTime="0.00" timeLoss="11.60" rerouteNo="0" devices="tripinfo_4" vType="DEFAULT_VEHTYPE" speedFactor="1.01" vaporized=""/>
    <tripinfo id="3" depart="2.00" departLane="918280985_0" departPos="5.10" departSpeed="0.00" departDelay="0.00" arrival="87.00" arrivalLane="15374898#0-AddedOffRampEdge_0" arrivalPos="100.00" arrivalSpeed="25.50" duration="85.00" routeLength="996.81" waitingTime="28.00" waitingCount="1" stopTime="0.00" timeLoss="43.49" rerouteNo="0" devices="tripinfo_3" vType="DEFAULT_VEHTYPE" speedFactor="0.94" vaporized=""/>
    <tripinfo id="10" depart="8.00" departLane="-260998164#3_0" departPos="5.10" departSpeed="0.00" departDelay="0.00" arrival="88.00" arrivalLane="422688976#1_0" arrivalPos="294.40" arrivalSpeed="24.76" duration="80.00" routeLength="1702.46" waitingTime="0.00" waitingCount="0" stopTime="0.00" timeLoss="13.85" rerouteNo="0" devices="tripinfo_10" vType="DEFAULT_VEHTYPE" speedFactor="0.94" vaporized=""/>
    <tripinfo id="9" depart="10.00" departLane="918280985_0" departPos="5.10" departSpeed="0.00" departDelay="2.00" arrival="95.00" arrivalLane="15374898#0-AddedOffRampEdge_0" arrivalPos="100.00" arrivalSpeed="23.39" duration="85.00" routeLength="996.81" waitingTime="23.00" waitingCount="1" stopTime="0.00" timeLoss="40.48" rerouteNo="0" devices="tripinfo_9" vType="DEFAULT_VEHTYPE" speedFactor="0.89" vaporized=""/>
    <tripinfo id="39" depart="48.00" departLane="918280985_0" departPos="5.10" departSpeed="0.00" departDelay="0.00" arrival="98.00" arrivalLane="15374898#0-AddedOffRampEdge_0" arrivalPos="100.00" arrivalSpeed="32.10" duration="50.00" routeLength="996.81" waitingTime="0.00" waitingCount="0" stopTime="0.00" timeLoss="16.24" rerouteNo="0" devices="tripinfo_39" vType="DEFAULT_VEHTYPE" speedFactor="1.18" vaporized=""/>
    <tripinfo id="14" depart="15.00" departLane="-260998164#3_0" departPos="5.10" departSpeed="0.00" departDelay="3.00" arrival="105.00" arrivalLane="-318908683#1_0" arrivalPos="71.22" arrivalSpeed="13.47" duration="90.00" routeLength="955.07" waitingTime="38.00" waitingCount="1" stopTime="0.00" timeLoss="52.59" rerouteNo="0" devices="tripinfo_14" vType="DEFAULT_VEHTYPE" speedFactor="1.05" vaporized=""/>
    <tripinfo id="28" depart="30.00" departLane="-260998164#3_0" departPos="5.10" departSpeed="0.00" departDelay="0.00" arrival="107.00" arrivalLane="-318908683#1_0" arrivalPos="71.22" arrivalSpeed="12.17" duration="77.00" routeLength="955.07" waitingTime="21.00" waitingCount="1" stopTime="0.00" timeLoss="34.98" rerouteNo="0" devices="tripinfo_28" vType="DEFAULT_VEHTYPE" speedFactor="0.92" vaporized=""/>
    <tripinfo id="15" depart="13.00" departLane="105681660#12_0" departPos="5.10" departSpeed="0.00" departDelay="0.00" arrival="109.00" arrivalLane="-597602756#0_0" arrivalPos="325.99" arrivalSpeed="24.47" duration="96.00" routeLength="1877.95" waitingTime="0.00" waitingCount="0" stopTime="0.00" timeLoss="18.10" rerouteNo="0" devices="tripinfo_15" vType="DEFAULT_VEHTYPE" speedFactor="1.12" vaporized=""/>
    <tripinfo id="5" depart="3.00" departLane="422688973_0" departPos="5.10" departSpeed="0.00" departDelay="0.00" arrival="115.00" arrivalLane="-597602753#1_0" arrivalPos="143.59" arrivalSpeed="23.86" duration="112.00" routeLength="1114.81" waitingTime="24.00" waitingCount="3" stopTime="0.00" timeLoss="51.23" rerouteNo="0" devices="tripinfo_5" vType="DEFAULT_VEHTYPE" speedFactor="1.08" vaporized=""/>
    <tripinfo id="18" depart="17.00" departLane="597602756#0_0" departPos="5.10" departSpeed="0.00" departDelay="0.00" arrival="119.00" arrivalLane="-318908683#1_0" arrivalPos="71.22" arrivalSpeed="12.01" duration="102.00" routeLength="1382.88" waitingTime="0.00" waitingCount="0" stopTime="0.00" timeLoss="15.34" rerouteNo="0" devices="tripinfo_18" vType="DEFAULT_VEHTYPE" speedFactor="0.88" vaporized=""/>
    <tripinfo id="27" depart="30.00" departLane="318908683#0_0" departPos="5.10" departSpeed="0.00" departDelay="0.00" arrival="125.00" arrivalLane="-597602753#1_0" arrivalPos="143.59" arrivalSpeed="19.10" duration="95.00" routeLength="1208.14" waitingTime="12.00" waitingCount="1" stopTime="0.00" timeLoss="30.66" rerouteNo="0" devices="tripinfo_27" vType="DEFAULT_VEHTYPE" speedFactor="0.87" vaporized=""/>
    <tripinfo id="22" depart="23.00" departLane="597602756#0_0" departPos="5.10" departSpeed="0.00" departDelay="3.00" arrival="127.00" arrivalLane="-597602753#1_0" arrivalPos="143.59" arrivalSpeed="22.29" duration="104.00" routeLength="1638.96" waitingTime="0.00" waitingCount="0" stopTime="0.00" timeLoss="30.21" rerouteNo="0" devices="tripinfo_22" vType="DEFAULT_VEHTYPE" speedFactor="1.02" vaporized=""/>
    <tripinfo id="7" depart="7.00" departLane="918280985_0" departPos="5.10" departSpeed="0.00" departDelay="0.00" arrival="136.00" arrivalLane="-318908683#1_0" arrivalPos="71.22" arrivalSpeed="10.53" duration="129.00" routeLength="674.50" waitingTime="74.00" waitingCount="2" stopTime="0.00" timeLoss="92.38" rerouteNo="0" devices="tripinfo_7" vType="DEFAULT_VEHTYPE" speedFactor="0.83" vaporized=""/>
    <tripinfo id="36" depart="44.00" departLane="105681660#12_0" departPos="5.10" departSpeed="0.00" departDelay="0.00" arrival="137.00" arrivalLane="-597602753#1_0" arrivalPos="143.59" arrivalSpeed="21.53" duration="93.00" routeLength="1380.56" waitingTime="14.00" waitingCount="1" stopTime="0.00" timeLoss="29.19" rerouteNo="0" devices="tripinfo_36" vType="DEFAULT_VEHTYPE" speedFactor="0.99" vaporized=""/>
    <tripinfo id="20" depart="19.00" departLane="422688973_0" departPos="5.10" departSpeed="0.00" departDelay="0.00" arrival="138.00" arrivalLane="-318908683#1_0" arrivalPos="71.22" arrivalSpeed="11.98" duration="119.00" routeLength="684.23" waitingTime="66.00" waitingCount="2" stopTime="0.00" timeLoss="88.39" rerouteNo="0" devices="tripinfo_20" vType="DEFAULT_VEHTYPE" speedFactor="0.94" vaporized=""/>
    <tripinfo id="35" depart="44.00" departLane="422688973_0" departPos="5.10" departSpeed="0.00" departDelay="1.00" arrival="139.00" arrivalLane="-318908683#1_0" arrivalPos="71.22" arrivalSpeed="12.99" duration="95.00" routeLength="684.23" waitingTime="40.00" waitingCount="2" stopTime="0.00" timeLoss="71.09" rerouteNo="0" devices="tripinfo_35" vType="DEFAULT_VEHTYPE" speedFactor="1.17" vaporized=""/>
    <tripinfo id="42" depart="52.00" departLane="597602756#0_0" departPos="5.10" departSpeed="0.00" departDelay="0.00" arrival="140.00" arrivalLane="260998164#0_0" arrivalPos="257.55" arrivalSpeed="27.83" duration="88.00" routeLength="1239.91" waitingTime="0.00" waitingCount="0" stopTime="0.00" timeLoss="16.99" rerouteNo="0" devices="tripinfo_42" vType="DEFAULT_VEHTYPE" speedFactor="1.03" vaporized=""/>
    <tripinfo id="23" depart="21.00" departLane="918280985_0" departPos="5.10" departSpeed="0.00" departDelay="0.00" arrival="143.00" arrivalLane="-597602753#1_0" arrivalPos="143.59" arrivalSpeed="21.88" duration="122.00" routeLength="1072.66" waitingTime="19.00" waitingCount="2" stopTime="0.00" timeLoss="49.57" rerouteNo="0" devices="tripinfo_23" vType="DEFAULT_VEHTYPE" speedFactor="1.01" vaporized=""/>
    <tripinfo id="24" depart="23.00" departLane="422688973_0" departPos="5.10" departSpeed="0.00" departDelay="0.00" arrival="148.00" arrivalLane="-597602753#1_0" arrivalPos="143.59" arrivalSpeed="21.46" duration="125.00" routeLength="1114.81" waitingTime="37.00" waitingCount="4" stopTime="0.00" timeLoss="58.18" rerouteNo="0" devices="tripinfo_24" vType="DEFAULT_VEHTYPE" speedFactor="0.97" vaporized=""/>
    <tripinfo id="63" depart="72.00" departLane="918280985_0" departPos="5.10" departSpeed="0.00" departDelay="0.00" arrival="148.00" arrivalLane="15374898#0-AddedOffRampEdge_0" arrivalPos="100.00" arrivalSpeed="31.09" duration="76.00" routeLength="996.81" waitingTime="20.00" waitingCount="1" stopTime="0.00" timeLoss="41.44" rerouteNo="0" devices="tripinfo_63" vType="DEFAULT_VEHTYPE" speedFactor="1.12" vaporized=""/>
    <tripinfo id="81" depart="92.00" departLane="918280985_0" departPos="5.10" departSpeed="0.00" departDelay="4.00" arrival="148.00" arrivalLane="-318908683#1_0" arrivalPos="71.22" arrivalSpeed="14.75" duration="56.00" routeLength="674.50" waitingTime="10.00" waitingCount="1" stopTime="0.00" timeLoss="28.03" rerouteNo="0" devices="tripinfo_81" vType="DEFAULT_VEHTYPE" speedFactor="1.09" vaporized=""/>
    <tripinfo id="47" depart="56.00" departLane="-260998164#3_0" departPos="5.10" departSpeed="0.00" departDelay="0.00" arrival="149.00" arrivalLane="-597602756#0_0" arrivalPos="325.99" arrivalSpeed="23.41" duration="93.00" routeLength="1707.85" waitingTime="0.00" waitingCount="0" stopTime="0.00" timeLoss="16.74" rerouteNo="0" devices="tripinfo_47" vType="DEFAULT_VEHTYPE" speedFactor="1.09" vaporized=""/>
    <tripinfo id="32" depart="38.00" departLane="-260998164#3_0" departPos="5.10" departSpeed="0.00" departDelay="0.00" arrival="150.00" arrivalLane="-597602753#1_0" arrivalPos="143.59" arrivalSpeed="24.96" duration="112.00" routeLength="1979.71" waitingTime="7.00" waitingCount="1" stopTime="0.00" timeLoss="42.16" rerouteNo="0" devices="tripinfo_32" vType="DEFAULT_VEHTYPE" speedFactor="1.18" vaporized=""/>
    <tripinfo id="6" depart="6.00" departLane="597602753#0_0" departPos="5.10" departSpeed="0.00" departDelay="2.00" arrival="154.00" arrivalLane="15374898#0-AddedOffRampEdge_0" arrivalPos="100.00" arrivalSpeed="28.38" duration="148.00" routeLength="1964.42" waitingTime="18.00" waitingCount="1" stopTime="0.00" timeLoss="45.97" rerouteNo="0" devices="tripinfo_6" vType="DEFAULT_VEHTYPE" speedFactor="1.03" vaporized=""/>
    <tripinfo id="26" depart="29.00" departLane="422685671#2_0" departPos="5.10" departSpeed="0.00" departDelay="0.00" arrival="154.00" arrivalLane="422688976#1_0" arrivalPos="294.40" arrivalSpeed="22.89" duration="125.00" routeLength="1317.05" waitingTime="43.00" waitingCount="2" stopTime="0.00" timeLoss="65.29" rerouteNo="0" devices="tripinfo_26" vType="DEFAULT_VEHTYPE" speedFactor="0.83" vaporized=""/>
    <tripinfo id="75" depart="83.00" departLane="918280985_0" departPos="5.10" departSpeed="0.00" departDelay="0.00" arrival="157.00" arrivalLane="15374898#0-AddedOffRampEdge_0" arrivalPos="100.00" arrivalSpeed="28.91" duration="74.00" routeLength="996.81" waitingTime="14.00" waitingCount="1" stopTime="0.00" timeLoss="37.36" rerouteNo="0" devices="tripinfo_75" vType="DEFAULT_VEHTYPE" speedFactor="1.06" vaporized=""/>
    <tripinfo id="86" depart="93.00" departLane="422685671#2_0" departPos="5.10" departSpeed="0.00" departDelay="1.00" arrival="159.00" arrivalLane="422688976#1_1" arrivalPos="294.40" arrivalSpeed="31.03" duration="66.00" routeLength="1317.05" waitingTime="0.00" waitingCount="0" stopTime="0.00" timeLoss="22.83" rerouteNo="0" devices="tripinfo_86" vType="DEFAULT_VEHTYPE" speedFactor="1.15" vaporized=""/>
    <tripinfo id="33" depart="41.00" departLane="422685671#2_0" departPos="5.10" departSpeed="0.00" departDelay="0.00" arrival="161.00" arrivalLane="-597602753#1_0" arrivalPos="143.59" arrivalSpeed="25.11" duration="120.00" routeLength="1584.34" waitingTime="30.00" waitingCount="1" stopTime="0.00" timeLoss="59.78" rerouteNo="0" devices="tripinfo_33" vType="DEFAULT_VEHTYPE" speedFactor="1.15" vaporized=""/>
    <tripinfo id="64" depart="73.00" departLane="-260998164#3_0" departPos="5.10" departSpeed="0.00" departDelay="0.00" arrival="162.00" arrivalLane="-597602756#0_0" arrivalPos="325.99" arrivalSpeed="21.34" duration="89.00" routeLength="1231.40" waitingTime="0.00" waitingCount="0" stopTime="0.00" timeLoss="18.24" rerouteNo="0" devices="tripinfo_64" vType="DEFAULT_VEHTYPE" speedFactor="1.02" vaporized=""/>
    <tripinfo id="16" depart="16.00" departLane="105681660#12_0" departPos="5.10" departSpeed="0.00" departDelay="0.00" arrival="163.00" arrivalLane="260998164#0_0" arrivalPos="257.55" arrivalSpeed="27.38" duration="147.00" routeLength="2169.41" waitingTime="12.00" waitingCount="1" stopTime="0.00" timeLoss="39.77" rerouteNo="0" devices="tripinfo_16" vType="DEFAULT_VEHTYPE" speedFactor="0.99" vaporized=""/>
    <tripinfo id="29" depart="33.00" departLane="-260998164#3_0" departPos="5.10" departSpeed="0.00" departDelay="1.00" arrival="165.00" arrivalLane="-105681660#20_0" arrivalPos="806.12" arrivalSpeed="20.34" duration="132.00" routeLength="2198.46" waitingTime="9.00" waitingCount="1" stopTime="0.00" timeLoss="33.94" rerouteNo="0" devices="tripinfo_29" vType="DEFAULT_VEHTYPE" speedFactor="0.95" vaporized=""/>
    <tripinfo id="25" depart="27.00" departLane="597602756#0_0" departPos="5.10" departSpeed="0.00" departDelay="0.00" arrival="166.00" arrivalLane="422688976#1_1" arrivalPos="294.40" arrivalSpeed="23.47" duration="139.00" routeLength="2130.27" waitingTime="1.00" waitingCount="1" stopTime="0.00" timeLoss="27.16" rerouteNo="0" devices="tripinfo_25" vType="DEFAULT_VEHTYPE" speedFactor="0.89" vaporized=""/>
    <tripinfo id="12" depart="12.00" departLane="-260998164#3_0" departPos="5.10" departSpeed="0.00" departDelay="0.00" arrival="167.00" arrivalLane="918280984_0" arrivalPos="38.78" arrivalSpeed="14.15" duration="155.00" routeLength="1465.15" waitingTime="73.00" waitingCount="2" stopTime="0.00" timeLoss="102.60" rerouteNo="0" devices="tripinfo_12" vType="DEFAULT_VEHTYPE" speedFactor="1.09" vaporized=""/>
    <tripinfo id="2" depart="0.00" departLane="597602756#0_0" departPos="5.10" departSpeed="0.00" departDelay="0.00" arrival="169.00" arrivalLane="918280984_0" arrivalPos="38.78" arrivalSpeed="14.10" duration="169.00" routeLength="1892.96" waitingTime="50.00" waitingCount="1" stopTime="0.00" timeLoss="78.62" rerouteNo="0" devices="tripinfo_2" vType="DEFAULT_VEHTYPE" speedFactor="1.06" vaporized=""/>
    <tripinfo id="57" depart="69.00" departLane="422685671#2_0" departPos="5.10" departSpeed="0.00" departDelay="0.00" arrival="171.00" arrivalLane="918280984_0" arrivalPos="38.78" arrivalSpeed="12.86" duration="102.00" routeLength="1069.78" waitingTime="29.00" waitingCount="2" stopTime="0.00" timeLoss="58.33" rerouteNo="0" devices="tripinfo_57" vType="DEFAULT_VEHTYPE" speedFactor="1.00" vaporized=""/>
    <tripinfo id="53" depart="63.00" departLane="422685671#2_0" departPos="5.10" departSpeed="0.00" departDelay="0.00" arrival="172.00" arrivalLane="-597602756#0_0" arrivalPos="325.99" arrivalSpeed="25.53" duration="109.00" routeLength="1778.05" waitingTime="8.00" waitingCount="1" stopTime="0.00" timeLoss="40.81" rerouteNo="0" devices="tripinfo_53" vType="DEFAULT_VEHTYPE" speedFactor="1.17" vaporized=""/>
    <tripinfo id="13" depart="12.00" departLane="422685671#2_0" departPos="5.10" departSpeed="0.00" departDelay="0.00" arrival="173.00" arrivalLane="-105681660#20_0" arrivalPos="806.12" arrivalSpeed="22.51" duration="161.00" routeLength="1813.05" waitingTime="53.00" waitingCount="1" stopTime="0.00" timeLoss="82.33" rerouteNo="0" devices="tripinfo_13" vType="DEFAULT_VEHTYPE" speedFactor="1.03" vaporized=""/>
    <tripinfo id="21" depart="20.00" departLane="597602753#0_0" departPos="5.10" departSpeed="0.00" departDelay="0.00" arrival="174.00" arrivalLane="15374898#0-AddedOffRampEdge_0" arrivalPos="100.00" arrivalSpeed="32.07" duration="154.00" routeLength="1964.42" waitingTime="28.00" waitingCount="2" stopTime="0.00" timeLoss="63.97" rerouteNo="0" devices="tripinfo_21" vType="DEFAULT_VEHTYPE" speedFactor="1.16" vaporized=""/>
    <tripinfo id="58" depart="70.00" departLane="-260998164#3_0" departPos="5.10" departSpeed="0.00" departDelay="0.00" arrival="174.00" arrivalLane="918280984_0" arrivalPos="38.78" arrivalSpeed="11.76" duration="104.00" routeLength="1455.19" waitingTime="16.00" waitingCount="2" stopTime="0.00" timeLoss="41.02" rerouteNo="0" devices="tripinfo_58" vType="DEFAULT_VEHTYPE" speedFactor="0.90" vaporized=""/>
    <tripinfo id="82" depart="89.00" departLane="105681660#12_0" departPos="5.10" departSpeed="0.00" departDelay="0.00" arrival="175.00" arrivalLane="-597602753#1_0" arrivalPos="143.59" arrivalSpeed="22.40" duration="86.00" routeLength="1380.56" waitingTime="9.00" waitingCount="1" stopTime="0.00" timeLoss="24.34" rerouteNo="0" devices="tripinfo_82" vType="DEFAULT_VEHTYPE" speedFactor="1.03" vaporized=""/>
    <tripinfo id="72" depart="81.00" departLane="318908683#0_0" departPos="5.10" departSpeed="0.00" departDelay="3.00" arrival="176.00" arrivalLane="260998164#0_0" arrivalPos="257.55" arrivalSpeed="28.08" duration="95.00" routeLength="939.98" waitingTime="44.00" waitingCount="1" stopTime="0.00" timeLoss="58.31" rerouteNo="0" devices="tripinfo_72" vType="DEFAULT_VEHTYPE" speedFactor="1.02" vaporized=""/>
    <tripinfo id="17" depart="16.00" departLane="918280985_0" departPos="5.10" departSpeed="0.00" departDelay="0.00" arrival="185.00" arrivalLane="-105681660#20_0" arrivalPos="806.12" arrivalSpeed="20.44" duration="169.00" routeLength="1360.98" waitingTime="60.00" waitingCount="3" stopTime="0.00" timeLoss="86.55" rerouteNo="0" devices="tripinfo_17" vType="DEFAULT_VEHTYPE" speedFactor="0.93" vaporized=""/>
    <tripinfo id="61" depart="72.00" departLane="422685671#2_0" departPos="5.10" departSpeed="0.00" departDelay="0.00" arrival="185.00" arrivalLane="-597602756#0_0" arrivalPos="325.99" arrivalSpeed="21.44" duration="113.00" routeLength="1778.05" waitingTime="0.00" waitingCount="0" stopTime="0.00" timeLoss="30.68" rerouteNo="0" devices="tripinfo_61" vType="DEFAULT_VEHTYPE" speedFactor="0.97" vaporized=""/>
    <tripinfo id="49" depart="62.00" departLane="597602753#0_0" departPos="5.10" departSpeed="0.00" departDelay="3.00" arrival="189.00" arrivalLane="918280984_0" arrivalPos="38.78" arrivalSpeed="12.27" duration="127.00" routeLength="1061.00" waitingTime="30.00" waitingCount="1" stopTime="0.00" timeLoss="46.06" rerouteNo="0" devices="tripinfo_49" vType="DEFAULT_VEHTYPE" speedFactor="0.90" vaporized=""/>
    <tripinfo id="87" depart="94.00" departLane="597602753#0_0" departPos="5.10" departSpeed="0.00" departDelay="0.00" arrival="192.00" arrivalLane="918280984_0" arrivalPos="38.78" arrivalSpeed="12.76" duration="98.00" routeLength="1061.00" waitingTime="6.00" waitingCount="1" stopTime="0.00" timeLoss="24.08" rerouteNo="0" devices="tripinfo_87" vType="DEFAULT_VEHTYPE" speedFactor="0.98" vaporized=""/>
    <tripinfo id="45" depart="53.00" departLane="422688973_0" departPos="5.10" departSpeed="0.00" departDelay="0.00" arrival="194.00" arrivalLane="260998164#0_0" arrivalPos="257.55" arrivalSpeed="28.07" duration="141.00" routeLength="1470.06" waitingTime="60.00" waitingCount="2" stopTime="0.00" timeLoss="88.26" rerouteNo="0" devices="tripinfo_45" vType="DEFAULT_VEHTYPE" speedFactor="1.04" vaporized=""/>
    <tripinfo id="56" depart="68.00" departLane="105681660#12_0" departPos="5.10" departSpeed="0.00" departDelay="0.00" arrival="196.00" arrivalLane="918280984_0" arrivalPos="38.78" arrivalSpeed="13.82" duration="128.00" routeLength="1405.13" waitingTime="29.00" waitingCount="1" stopTime="0.00" timeLoss="46.91" rerouteNo="0" devices="tripinfo_56" vType="DEFAULT_VEHTYPE" speedFactor="1.00" vaporized=""/>
    <tripinfo id="51" depart="61.00" departLane="422688973_0" departPos="5.10" departSpeed="0.00" departDelay="0.00" arrival="202.00" arrivalLane="260998164#0_0" arrivalPos="257.55" arrivalSpeed="22.40" duration="141.00" routeLength="1470.06" waitingTime="57.00" waitingCount="1" stopTime="0.00" timeLoss="77.28" rerouteNo="0" devices="tripinfo_51" vType="DEFAULT_VEHTYPE" speedFactor="0.85" vaporized=""/>
    <tripinfo id="71" depart="78.00" departLane="918280985_0" departPos="5.10" departSpeed="0.00" departDelay="0.00" arrival="204.00" arrivalLane="260998164#0_0" arrivalPos="257.55" arrivalSpeed="26.65" duration="126.00" routeLength="1460.33" waitingTime="41.00" waitingCount="2" stopTime="0.00" timeLoss="70.06" rerouteNo="0" devices="tripinfo_71" vType="DEFAULT_VEHTYPE" speedFactor="1.02" vaporized=""/>
    <tripinfo id="100" depart="119.00" departLane="918280985_0" departPos="5.10" departSpeed="0.00" departDelay="8.00" arrival="205.00" arrivalLane="260998164#0_0" arrivalPos="257.55" arrivalSpeed="26.88" duration="86.00" routeLength="1460.33" waitingTime="5.00" waitingCount="1" stopTime="0.00" timeLoss="35.68" rerouteNo="0" devices="tripinfo_100" vType="DEFAULT_VEHTYPE" speedFactor="1.12" vaporized=""/>
    <tripinfo id="8" depart="8.00" departLane="105681660#12_0" departPos="5.10" departSpeed="0.00" departDelay="0.00" arrival="209.00" arrivalLane="260998164#0_0" arrivalPos="257.55" arrivalSpeed="28.62" duration="201.00" routeLength="2772.07" waitingTime="23.00" waitingCount="4" stopTime="0.00" timeLoss="75.62" rerouteNo="0" devices="tripinfo_8" vType="DEFAULT_VEHTYPE" speedFactor="1.05" vaporized=""/>
    <tripinfo id="60" depart="71.00" departLane="318908683#0_0" departPos="5.10" departSpeed="0.00" departDelay="0.00" arrival="210.00" arrivalLane="-597602756#0_0" arrivalPos="325.99" arrivalSpeed="21.47" duration="139.00" routeLength="1401.85" waitingTime="48.00" waitingCount="1" stopTime="0.00" timeLoss="73.67" rerouteNo="0" devices="tripinfo_60" vType="DEFAULT_VEHTYPE" speedFactor="1.02" vaporized=""/>
    <tripinfo id="89" depart="97.00" departLane="422688973_0" departPos="5.10" departSpeed="0.00" departDelay="0.00" arrival="210.00" arrivalLane="260998164#0_0" arrivalPos="257.55" arrivalSpeed="28.78" duration="113.00" routeLength="1470.06" waitingTime="29.00" waitingCount="1" stopTime="0.00" timeLoss="60.52" rerouteNo="0" devices="tripinfo_89" vType="DEFAULT_VEHTYPE" speedFactor="1.04" vaporized=""/>
    <tripinfo id="50" depart="60.00" departLane="-260998164#3_0" departPos="5.10" departSpeed="0.00" departDelay="0.00" arrival="211.00" arrivalLane="15374898#0-AddedOffRampEdge_1" arrivalPos="100.00" arrivalSpeed="23.61" duration="151.00" routeLength="1332.80" waitingTime="81.00" waitingCount="1" stopTime="0.00" timeLoss="96.08" rerouteNo="0" devices="tripinfo_50" vType="DEFAULT_VEHTYPE" speedFactor="0.88" vaporized=""/>
    <tripinfo id="119" depart="138.00" departLane="105681660#12_0" departPos="5.10" departSpeed="0.00" departDelay="0.00" arrival="212.00" arrivalLane="-597602753#1_0" arrivalPos="143.59" arrivalSpeed="21.51" duration="74.00" routeLength="1380.56" waitingTime="0.00" waitingCount="0" stopTime="0.00" timeLoss="10.73" rerouteNo="0" devices="tripinfo_119" vType="DEFAULT_VEHTYPE" speedFactor="1.00" vaporized=""/>
    <tripinfo id="54" depart="64.00" departLane="-260998164#3_0" departPos="5.10" departSpeed="0.00" departDelay="0.00" arrival="213.00" arrivalLane="15374898#0-AddedOffRampEdge_1" arrivalPos="100.00" arrivalSpeed="26.71" duration="149.00" routeLength="1332.80" waitingTime="79.00" waitingCount="1" stopTime="0.00" timeLoss="101.09" rerouteNo="0" devices="tripinfo_54" vType="DEFAULT_VEHTYPE" speedFactor="1.02" vaporized=""/>
    <tripinfo id="103" depart="114.00" departLane="597602753#0_0" departPos="5.10" departSpeed="0.00" departDelay="2.00" arrival="213.00" arrivalLane="422688976#1_0" arrivalPos="294.40" arrivalSpeed="26.35" duration="99.00" routeLength="1286.53" waitingTime="0.00" waitingCount="0" stopTime="0.00" timeLoss="16.30" rerouteNo="0" devices="tripinfo_103" vType="DEFAULT_VEHTYPE" speedFactor="0.96" vaporized=""/>
    <tripinfo id="92" depart="103.00" departLane="-260998164#3_0" departPos="5.10" departSpeed="0.00" departDelay="0.00" arrival="214.00" arrivalLane="15374898#0-AddedOffRampEdge_1" arrivalPos="100.00" arrivalSpeed="26.30" duration="111.00" routeLength="1332.80" waitingTime="42.00" waitingCount="1" stopTime="0.00" timeLoss="63.54" rerouteNo="0" devices="tripinfo_92" vType="DEFAULT_VEHTYPE" speedFactor="1.02" vaporized=""/>
    <tripinfo id="121" depart="140.00" departLane="-260998164#3_0" departPos="5.10" departSpeed="0.00" departDelay="0.00" arrival="216.00" arrivalLane="15374898#0-AddedOffRampEdge_1" arrivalPos="100.00" arrivalSpeed="29.68" duration="76.00" routeLength="1332.80" waitingTime="8.00" waitingCount="1" stopTime="0.00" timeLoss="30.38" rerouteNo="0" devices="tripinfo_121" vType="DEFAULT_VEHTYPE" speedFactor="1.07" vaporized=""/>
    <tripinfo id="108" depart="119.00" departLane="-260998164#3_0" departPos="5.10" departSpeed="0.00" departDelay="2.00" arrival="217.00" arrivalLane="-318908683#1_0" arrivalPos="71.22" arrivalSpeed="14.02" duration="98.00" routeLength="955.07" waitingTime="45.00" waitingCount="1" stopTime="0.00" timeLoss="59.32" rerouteNo="0" devices="tripinfo_108" vType="DEFAULT_VEHTYPE" speedFactor="1.01" vaporized=""/>
    <tripinfo id="46" depart="55.00" departLane="105681660#12_0" departPos="5.10" departSpeed="0.00" departDelay="0.00" arrival="218.00" arrivalLane="260998164#0_0" arrivalPos="257.55" arrivalSpeed="28.09" duration="163.00" routeLength="2169.41" waitingTime="25.00" waitingCount="2" stopTime="0.00" timeLoss="61.75" rerouteNo="0" devices="tripinfo_46" vType="DEFAULT_VEHTYPE" speedFactor="1.04" vaporized=""/>
    <tripinfo id="129" depart="147.00" departLane="-260998164#3_0" departPos="5.10" departSpeed="0.00" departDelay="0.00" arrival="220.00" arrivalLane="-318908683#1_0" arrivalPos="71.22" arrivalSpeed="11.35" duration="73.00" routeLength="955.07" waitingTime="11.00" waitingCount="1" stopTime="0.00" timeLoss="25.78" rerouteNo="0" devices="tripinfo_129" vType="DEFAULT_VEHTYPE" speedFactor="0.82" vaporized=""/>
    <tripinfo id="74" depart="84.00" departLane="318908683#0_0" departPos="5.10" departSpeed="0.00" departDelay="2.00" arrival="221.00" arrivalLane="422688976#1_1" arrivalPos="294.40" arrivalSpeed="25.29" duration="137.00" routeLength="940.85" waitingTime="75.00" waitingCount="2" stopTime="0.00" timeLoss="98.17" rerouteNo="0" devices="tripinfo_74" vType="DEFAULT_VEHTYPE" speedFactor="0.94" vaporized=""/>
    <tripinfo id="65" depart="74.00" departLane="105681660#12_0" departPos="5.10" departSpeed="0.00" departDelay="1.00" arrival="222.00" arrivalLane="422688976#1_2" arrivalPos="294.40" arrivalSpeed="27.19" duration="148.00" routeLength="2020.13" waitingTime="27.00" waitingCount="2" stopTime="0.00" timeLoss="60.24" rerouteNo="0" devices="tripinfo_65" vType="DEFAULT_VEHTYPE" speedFactor="0.99" vaporized=""/>
    <tripinfo id="68" depart="78.00" departLane="318908683#0_0" departPos="5.10" departSpeed="0.00" departDelay="2.00" arrival="222.00" arrivalLane="-597602756#0_0" arrivalPos="325.99" arrivalSpeed="19.41" duration="144.00" routeLength="1401.85" waitingTime="45.00" waitingCount="1" stopTime="0.00" timeLoss="70.68" rerouteNo="0" devices="tripinfo_68" vType="DEFAULT_VEHTYPE" speedFactor="0.91" vaporized=""/>
    <tripinfo id="96" depart="134.00" departLane="318908683#0_0" departPos="5.10" departSpeed="0.00" departDelay="26.00" arrival="222.00" arrivalLane="422688976#1_0" arrivalPos="294.40" arrivalSpeed="28.27" duration="88.00" routeLength="940.85" waitingTime="31.00" waitingCount="1" stopTime="0.00" timeLoss="54.07" rerouteNo="0" devices="tripinfo_96" vType="DEFAULT_VEHTYPE" speedFactor="1.09" vaporized=""/>
    <tripinfo id="102" depart="113.00" departLane="597602756#0_0" departPos="5.10" departSpeed="0.00" departDelay="2.00" arrival="222.00" arrivalLane="-318908683#1_0" arrivalPos="71.22" arrivalSpeed="13.75" duration="109.00" routeLength="1665.63" waitingTime="0.00" waitingCount="0" stopTime="0.00" timeLoss="21.78" rerouteNo="0" devices="tripinfo_102" vType="DEFAULT_VEHTYPE" speedFactor="1.06" vaporized=""/>
    <tripinfo id="37" depart="45.00" departLane="918280985_0" departPos="5.10" departSpeed="0.00" departDelay="0.00" arrival="223.00" arrivalLane="-597602753#1_0" arrivalPos="143.59" arrivalSpeed="22.57" duration="178.00" routeLength="1123.56" waitingTime="87.00" waitingCount="3" stopTime="0.00" timeLoss="112.70" rerouteNo="0" devices="tripinfo_37" vType="DEFAULT_VEHTYPE" speedFactor="1.02" vaporized=""/>
    <tripinfo id="62" depart="75.00" departLane="422685671#2_0" departPos="5.10" departSpeed="0.00" departDelay="3.00" arrival="225.00" arrivalLane="-597602753#1_0" arrivalPos="143.59" arrivalSpeed="24.04" duration="150.00" routeLength="1584.34" waitingTime="42.00" waitingCount="1" stopTime="0.00" timeLoss="86.03" rerouteNo="0" devices="tripinfo_62" vType="DEFAULT_VEHTYPE" speedFactor="1.08" vaporized=""/>