<?xml version="1.0" encoding="UTF-8"?>

<!-- generated on 2023-04-04 16:40:54 by Eclipse SUMO sumo Version 1.16.0
<configuration xmlns:xsi="http://www.w3.org/2001/XMLSchema-instance" xsi:noNamespaceSchemaLocation="http://sumo.dlr.de/xsd/sumoConfiguration.xsd">

    <input>
        <net-file value="C:\Users\Local_Man\Desktop\Stolen%20Music\school%20stuff%20for%20college\Semester%2015%20(UH%20Graduate%20School)\COSC%206364%20Nikolaos\SUMO_Project\COSC6364_Project\configurations\maps\4corners_neighborhoods.net.xml"/>
        <route-files value="./configurations/Rounds/4corners_neighborhoods.net.xml-test-1/Macroscopic_DUE/Macro_Routes.xml"/>
    </input>

    <output>
        <summary-output value="./configurations/Rounds/4corners_neighborhoods.net.xml-test-1/Macroscopic_DUE/summary.xml"/>
        <tripinfo-output value="./configurations/Rounds/4corners_neighborhoods.net.xml-test-1/Macroscopic_DUE/trips.trips.xml"/>
    </output>

    <time>
        <begin value="0"/>
    </time>

    <report>
        <log value="./configurations/Rounds/4corners_neighborhoods.net.xml-test-1/Macroscopic_DUE/log.sumo.log"/>
        <no-step-log value="true"/>
    </report>

    <gui_only>
        <quit-on-end value="true"/>
    </gui_only>

</configuration>
-->

<tripinfos xmlns:xsi="http://www.w3.org/2001/XMLSchema-instance" xsi:noNamespaceSchemaLocation="http://sumo.dlr.de/xsd/tripinfo_file.xsd">
    <tripinfo id="11" depart="14.00" departLane="422685671#2_0" departPos="5.10" departSpeed="25.02" departDelay="0.00" arrival="76.00" arrivalLane="918280984_0" arrivalPos="38.78" arrivalSpeed="11.61" duration="62.00" routeLength="1069.78" waitingTime="1.00" waitingCount="1" stopTime="0.00" timeLoss="13.80" rerouteNo="0" devices="tripinfo_11" vType="DEFAULT_VEHTYPE" speedFactor="0.90" vaporized=""/>
    <tripinfo id="6" depart="9.00" departLane="318908683#0_0" departPos="5.10" departSpeed="14.53" departDelay="0.00" arrival="78.00" arrivalLane="918280984_0" arrivalPos="38.78" arrivalSpeed="13.40" duration="69.00" routeLength="693.58" waitingTime="25.00" waitingCount="1" stopTime="0.00" timeLoss="38.87" rerouteNo="0" devices="tripinfo_6" vType="DEFAULT_VEHTYPE" speedFactor="1.05" vaporized=""/>
    <tripinfo id="50" depart="46.00" departLane="318908683#0_0" departPos="5.10" departSpeed="4.72" departDelay="0.00" arrival="96.00" arrivalLane="260998164#0_0" arrivalPos="257.55" arrivalSpeed="26.93" duration="50.00" routeLength="939.98" waitingTime="0.00" waitingCount="0" stopTime="0.00" timeLoss="12.12" rerouteNo="0" devices="tripinfo_50" vType="DEFAULT_VEHTYPE" speedFactor="1.00" vaporized=""/>
    <tripinfo id="14" depart="15.00" departLane="597602753#0_0" departPos="5.10" departSpeed="20.80" departDelay="0.00" arrival="99.00" arrivalLane="918280984_0" arrivalPos="38.78" arrivalSpeed="12.35" duration="84.00" routeLength="1061.00" waitingTime="0.00" waitingCount="0" stopTime="0.00" timeLoss="6.61" rerouteNo="0" devices="tripinfo_14" vType="DEFAULT_VEHTYPE" speedFactor="0.94" vaporized=""/>
    <tripinfo id="27" depart="25.00" departLane="422688973_0" departPos="5.10" departSpeed="15.75" departDelay="0.00" arrival="100.00" arrivalLane="15374898#0-AddedOffRampEdge_0" arrivalPos="100.00" arrivalSpeed="27.62" duration="75.00" routeLength="1006.54" waitingTime="18.00" waitingCount="1" stopTime="0.00" timeLoss="37.80" rerouteNo="0" devices="tripinfo_27" vType="DEFAULT_VEHTYPE" speedFactor="0.99" vaporized=""/>
    <tripinfo id="34" depart="31.00" departLane="422688973_2" departPos="5.10" departSpeed="0.24" departDelay="0.00" arrival="102.00" arrivalLane="15374898#0-AddedOffRampEdge_0" arrivalPos="100.00" arrivalSpeed="28.75" duration="71.00" routeLength="1006.54" waitingTime="12.00" waitingCount="1" stopTime="0.00" timeLoss="35.56" rerouteNo="0" devices="tripinfo_34" vType="DEFAULT_VEHTYPE" speedFactor="1.07" vaporized=""/>
    <tripinfo id="54" depart="48.00" departLane="422688973_2" departPos="5.10" departSpeed="3.52" departDelay="0.00" arrival="106.00" arrivalLane="15374898#0-AddedOffRampEdge_0" arrivalPos="100.00" arrivalSpeed="24.44" duration="58.00" routeLength="1006.54" waitingTime="0.00" waitingCount="0" stopTime="0.00" timeLoss="16.90" rerouteNo="0" devices="tripinfo_54" vType="DEFAULT_VEHTYPE" speedFactor="0.91" vaporized=""/>
    <tripinfo id="17" depart="16.00" departLane="597602756#0_0" departPos="5.10" departSpeed="22.45" departDelay="0.00" arrival="108.00" arrivalLane="260998164#0_0" arrivalPos="257.55" arrivalSpeed="27.96" duration="92.00" routeLength="1239.91" waitingTime="7.00" waitingCount="1" stopTime="0.00" timeLoss="19.52" rerouteNo="0" devices="tripinfo_17" vType="DEFAULT_VEHTYPE" speedFactor="1.01" vaporized=""/>
    <tripinfo id="15" depart="15.00" departLane="105681660#12_0" departPos="5.10" departSpeed="23.16" departDelay="0.00" arrival="112.00" arrivalLane="-597602756#0_0" arrivalPos="325.99" arrivalSpeed="22.40" duration="97.00" routeLength="1877.95" waitingTime="0.00" waitingCount="0" stopTime="0.00" timeLoss="13.22" rerouteNo="0" devices="tripinfo_15" vType="DEFAULT_VEHTYPE" speedFactor="1.04" vaporized=""/>
    <tripinfo id="24" depart="22.00" departLane="105681660#12_0" departPos="5.10" departSpeed="19.86" departDelay="0.00" arrival="113.00" arrivalLane="-597602753#1_0" arrivalPos="143.59" arrivalSpeed="19.69" duration="91.00" routeLength="1380.56" waitingTime="9.00" waitingCount="1" stopTime="0.00" timeLoss="19.92" rerouteNo="0" devices="tripinfo_24" vType="DEFAULT_VEHTYPE" speedFactor="0.89" vaporized=""/>
    <tripinfo id="20" depart="18.00" departLane="422688973_0" departPos="5.10" departSpeed="0.00" departDelay="0.00" arrival="115.00" arrivalLane="-597602753#1_0" arrivalPos="143.59" arrivalSpeed="21.23" duration="97.00" routeLength="1114.81" waitingTime="11.00" waitingCount="1" stopTime="0.00" timeLoss="31.00" rerouteNo="0" devices="tripinfo_20" vType="DEFAULT_VEHTYPE" speedFactor="1.01" vaporized=""/>
    <tripinfo id="30" depart="27.00" departLane="597602756#0_0" departPos="5.10" departSpeed="24.49" departDelay="0.00" arrival="115.00" arrivalLane="15374898#0-AddedOffRampEdge_1" arrivalPos="100.00" arrivalSpeed="30.32" duration="88.00" routeLength="1760.61" waitingTime="0.00" waitingCount="0" stopTime="0.00" timeLoss="10.64" rerouteNo="0" devices="tripinfo_30" vType="DEFAULT_VEHTYPE" speedFactor="1.10" vaporized=""/>
    <tripinfo id="3" depart="6.00" departLane="105681660#12_0" departPos="5.10" departSpeed="24.06" departDelay="0.00" arrival="118.00" arrivalLane="422688976#1_0" arrivalPos="294.40" arrivalSpeed="29.75" duration="112.00" routeLength="1630.66" waitingTime="11.00" waitingCount="2" stopTime="0.00" timeLoss="30.99" rerouteNo="0" devices="tripinfo_3" vType="DEFAULT_VEHTYPE" speedFactor="1.08" vaporized=""/>
    <tripinfo id="18" depart="18.00" departLane="-260998164#3_0" departPos="5.10" departSpeed="28.59" departDelay="0.00" arrival="120.00" arrivalLane="-318908683#1_0" arrivalPos="71.22" arrivalSpeed="13.84" duration="102.00" routeLength="955.07" waitingTime="56.00" waitingCount="1" stopTime="0.00" timeLoss="64.33" rerouteNo="0" devices="tripinfo_18" vType="DEFAULT_VEHTYPE" speedFactor="1.03" vaporized=""/>
    <tripinfo id="2" depart="5.00" departLane="918280985_0" departPos="5.10" departSpeed="13.55" departDelay="0.00" arrival="121.00" arrivalLane="-597602753#1_0" arrivalPos="143.59" arrivalSpeed="20.77" duration="116.00" routeLength="1072.66" waitingTime="27.00" waitingCount="1" stopTime="0.00" timeLoss="40.61" rerouteNo="0" devices="tripinfo_2" vType="DEFAULT_VEHTYPE" speedFactor="0.98" vaporized=""/>
    <tripinfo id="9" depart="11.00" departLane="597602756#0_0" departPos="5.10" departSpeed="22.60" departDelay="0.00" arrival="122.00" arrivalLane="-318908683#1_0" arrivalPos="71.22" arrivalSpeed="13.82" duration="111.00" routeLength="1382.88" waitingTime="20.00" waitingCount="1" stopTime="0.00" timeLoss="36.93" rerouteNo="0" devices="tripinfo_9" vType="DEFAULT_VEHTYPE" speedFactor="1.02" vaporized=""/>
    <tripinfo id="8" depart="11.00" departLane="422688973_0" departPos="5.10" departSpeed="0.00" departDelay="0.00" arrival="123.00" arrivalLane="-105681660#20_0" arrivalPos="806.12" arrivalSpeed="19.67" duration="112.00" routeLength="1352.23" waitingTime="13.00" waitingCount="1" stopTime="0.00" timeLoss="32.11" rerouteNo="0" devices="tripinfo_8" vType="DEFAULT_VEHTYPE" speedFactor="0.94" vaporized=""/>
    <tripinfo id="25" depart="22.00" departLane="422685671#2_0" departPos="5.10" departSpeed="32.07" departDelay="0.00" arrival="127.00" arrivalLane="422688976#1_0" arrivalPos="294.40" arrivalSpeed="31.78" duration="105.00" routeLength="1317.05" waitingTime="43.00" waitingCount="1" stopTime="0.00" timeLoss="61.33" rerouteNo="0" devices="tripinfo_25" vType="DEFAULT_VEHTYPE" speedFactor="1.15" vaporized=""/>
    <tripinfo id="49" depart="51.00" departLane="318908683#0_0" departPos="5.10" departSpeed="0.67" departDelay="5.00" arrival="127.00" arrivalLane="422688976#1_1" arrivalPos="294.40" arrivalSpeed="29.85" duration="76.00" routeLength="940.85" waitingTime="23.00" waitingCount="1" stopTime="0.00" timeLoss="43.12" rerouteNo="0" devices="tripinfo_49" vType="DEFAULT_VEHTYPE" speedFactor="1.12" vaporized=""/>
    <tripinfo id="23" depart="21.00" departLane="597602753#0_0" departPos="5.10" departSpeed="25.15" departDelay="0.00" arrival="128.00" arrivalLane="-597602756#0_0" arrivalPos="325.99" arrivalSpeed="24.47" duration="107.00" routeLength="1646.04" waitingTime="18.00" waitingCount="2" stopTime="0.00" timeLoss="39.55" rerouteNo="0" devices="tripinfo_23" vType="DEFAULT_VEHTYPE" speedFactor="1.13" vaporized=""/>
    <tripinfo id="39" depart="39.00" departLane="318908683#0_0" departPos="5.10" departSpeed="11.15" departDelay="0.00" arrival="129.00" arrivalLane="422688976#1_1" arrivalPos="294.40" arrivalSpeed="23.11" duration="90.00" routeLength="940.85" waitingTime="28.00" waitingCount="2" stopTime="0.00" timeLoss="47.83" rerouteNo="0" devices="tripinfo_39" vType="DEFAULT_VEHTYPE" speedFactor="0.88" vaporized=""/>
    <tripinfo id="5" depart="9.00" departLane="597602756#0_0" departPos="5.10" departSpeed="23.95" departDelay="0.00" arrival="130.00" arrivalLane="422688976#1_0" arrivalPos="294.40" arrivalSpeed="26.18" duration="121.00" routeLength="1985.14" waitingTime="6.00" waitingCount="3" stopTime="0.00" timeLoss="42.63" rerouteNo="0" devices="tripinfo_5" vType="DEFAULT_VEHTYPE" speedFactor="1.08" vaporized=""/>
    <tripinfo id="57" depart="52.00" departLane="597602756#0_0" departPos="5.10" departSpeed="24.84" departDelay="0.00" arrival="130.00" arrivalLane="260998164#0_0" arrivalPos="257.55" arrivalSpeed="30.71" duration="78.00" routeLength="1239.91" waitingTime="0.00" waitingCount="0" stopTime="0.00" timeLoss="11.68" rerouteNo="0" devices="tripinfo_57" vType="DEFAULT_VEHTYPE" speedFactor="1.12" vaporized=""/>
    <tripinfo id="61" depart="57.00" departLane="318908683#0_0" departPos="5.10" departSpeed="5.69" departDelay="1.00" arrival="130.00" arrivalLane="422688976#1_1" arrivalPos="294.40" arrivalSpeed="25.17" duration="73.00" routeLength="940.85" waitingTime="14.00" waitingCount="1" stopTime="0.00" timeLoss="33.06" rerouteNo="0" devices="tripinfo_61" vType="DEFAULT_VEHTYPE" speedFactor="0.92" vaporized=""/>
    <tripinfo id="101" depart="91.00" departLane="-260998164#3_0" departPos="5.10" departSpeed="28.67" departDelay="0.00" arrival="131.00" arrivalLane="-318908683#1_0" arrivalPos="71.22" arrivalSpeed="13.64" duration="40.00" routeLength="955.07" waitingTime="0.00" waitingCount="0" stopTime="0.00" timeLoss="2.65" rerouteNo="0" devices="tripinfo_101" vType="DEFAULT_VEHTYPE" speedFactor="1.03" vaporized=""/>
    <tripinfo id="19" depart="18.00" departLane="318908683#0_0" departPos="5.10" departSpeed="12.36" departDelay="0.00" arrival="132.00" arrivalLane="-597602753#1_0" arrivalPos="143.59" arrivalSpeed="18.79" duration="114.00" routeLength="1208.14" waitingTime="27.00" waitingCount="2" stopTime="0.00" timeLoss="49.79" rerouteNo="0" devices="tripinfo_19" vType="DEFAULT_VEHTYPE" speedFactor="0.89" vaporized=""/>
    <tripinfo id="22" depart="20.00" departLane="318908683#0_0" departPos="5.10" departSpeed="12.63" departDelay="0.00" arrival="133.00" arrivalLane="-597602753#1_0" arrivalPos="143.59" arrivalSpeed="21.22" duration="113.00" routeLength="1208.14" waitingTime="26.00" waitingCount="2" stopTime="0.00" timeLoss="58.10" rerouteNo="0" devices="tripinfo_22" vType="DEFAULT_VEHTYPE" speedFactor="1.03" vaporized=""/>
    <tripinfo id="56" depart="51.00" departLane="-260998164#3_0" departPos="5.10" departSpeed="25.78" departDelay="0.00" arrival="133.00" arrivalLane="422688976#1_1" arrivalPos="294.40" arrivalSpeed="25.07" duration="82.00" routeLength="1702.46" waitingTime="0.00" waitingCount="0" stopTime="0.00" timeLoss="14.28" rerouteNo="0" devices="tripinfo_56" vType="DEFAULT_VEHTYPE" speedFactor="0.93" vaporized=""/>
    <tripinfo id="12" depart="14.00" departLane="318908683#0_0" departPos="5.10" departSpeed="15.60" departDelay="0.00" arrival="134.00" arrivalLane="-105681660#20_0" arrivalPos="806.12" arrivalSpeed="24.03" duration="120.00" routeLength="1436.85" waitingTime="35.00" waitingCount="2" stopTime="0.00" timeLoss="60.23" rerouteNo="0" devices="tripinfo_12" vType="DEFAULT_VEHTYPE" speedFactor="1.12" vaporized=""/>
    <tripinfo id="33" depart="30.00" departLane="318908683#0_0" departPos="5.10" departSpeed="14.31" departDelay="0.00" arrival="135.00" arrivalLane="-597602753#1_0" arrivalPos="143.59" arrivalSpeed="21.84" duration="105.00" routeLength="1208.14" waitingTime="16.00" waitingCount="2" stopTime="0.00" timeLoss="50.02" rerouteNo="0" devices="tripinfo_33" vType="DEFAULT_VEHTYPE" speedFactor="1.03" vaporized=""/>
    <tripinfo id="35" depart="32.00" departLane="318908683#0_0" departPos="5.10" departSpeed="12.90" departDelay="0.00" arrival="136.00" arrivalLane="-597602753#1_0" arrivalPos="143.59" arrivalSpeed="21.79" duration="104.00" routeLength="1208.14" waitingTime="13.00" waitingCount="2" stopTime="0.00" timeLoss="49.14" rerouteNo="0" devices="tripinfo_35" vType="DEFAULT_VEHTYPE" speedFactor="1.04" vaporized=""/>
    <tripinfo id="60" depart="56.00" departLane="597602756#0_0" departPos="5.10" departSpeed="21.50" departDelay="0.00" arrival="136.00" arrivalLane="260998164#0_0" arrivalPos="257.55" arrivalSpeed="29.22" duration="80.00" routeLength="1239.91" waitingTime="0.00" waitingCount="0" stopTime="0.00" timeLoss="12.95" rerouteNo="0" devices="tripinfo_60" vType="DEFAULT_VEHTYPE" speedFactor="1.09" vaporized=""/>
    <tripinfo id="51" depart="55.00" departLane="318908683#0_0" departPos="5.10" departSpeed="5.80" departDelay="7.00" arrival="137.00" arrivalLane="918280984_0" arrivalPos="38.78" arrivalSpeed="12.54" duration="82.00" routeLength="693.58" waitingTime="32.00" waitingCount="2" stopTime="0.00" timeLoss="50.22" rerouteNo="0" devices="tripinfo_51" vType="DEFAULT_VEHTYPE" speedFactor="0.96" vaporized=""/>
    <tripinfo id="29" depart="27.00" departLane="-260998164#3_0" departPos="5.10" departSpeed="24.92" departDelay="1.00" arrival="139.00" arrivalLane="918280984_0" arrivalPos="38.78" arrivalSpeed="13.69" duration="112.00" routeLength="1455.19" waitingTime="29.00" waitingCount="3" stopTime="0.00" timeLoss="56.63" rerouteNo="0" devices="tripinfo_29" vType="DEFAULT_VEHTYPE" speedFactor="1.02" vaporized=""/>
    <tripinfo id="84" depart="78.00" departLane="918280985_0" departPos="5.10" departSpeed="10.50" departDelay="0.00" arrival="139.00" arrivalLane="15374898#0-AddedOffRampEdge_0" arrivalPos="100.00" arrivalSpeed="34.63" duration="61.00" routeLength="996.81" waitingTime="8.00" waitingCount="1" stopTime="0.00" timeLoss="29.72" rerouteNo="0" devices="tripinfo_84" vType="DEFAULT_VEHTYPE" speedFactor="1.25" vaporized=""/>
    <tripinfo id="28" depart="26.00" departLane="-260998164#3_0" departPos="5.10" departSpeed="26.91" departDelay="0.00" arrival="141.00" arrivalLane="918280984_0" arrivalPos="38.78" arrivalSpeed="13.40" duration="115.00" routeLength="1465.15" waitingTime="38.00" waitingCount="2" stopTime="0.00" timeLoss="56.63" rerouteNo="0" devices="tripinfo_28" vType="DEFAULT_VEHTYPE" speedFactor="0.97" vaporized=""/>
    <tripinfo id="38" depart="38.00" departLane="-260998164#3_0" departPos="5.10" departSpeed="28.36" departDelay="0.00" arrival="143.00" arrivalLane="-597602753#1_0" arrivalPos="143.59" arrivalSpeed="22.44" duration="105.00" routeLength="1969.75" waitingTime="0.00" waitingCount="0" stopTime="0.00" timeLoss="24.68" rerouteNo="0" devices="tripinfo_38" vType="DEFAULT_VEHTYPE" speedFactor="1.02" vaporized=""/>
    <tripinfo id="80" depart="76.00" departLane="-260998164#3_0" departPos="5.10" departSpeed="29.89" departDelay="0.00" arrival="143.00" arrivalLane="918280984_0" arrivalPos="38.78" arrivalSpeed="13.95" duration="67.00" routeLength="1455.19" waitingTime="0.00" waitingCount="0" stopTime="0.00" timeLoss="14.60" rerouteNo="0" devices="tripinfo_80" vType="DEFAULT_VEHTYPE" speedFactor="1.08" vaporized=""/>
    <tripinfo id="16" depart="16.00" departLane="597602753#0_0" departPos="5.10" departSpeed="18.75" departDelay="0.00" arrival="144.00" arrivalLane="15374898#0-AddedOffRampEdge_0" arrivalPos="100.00" arrivalSpeed="30.05" duration="128.00" routeLength="1964.42" waitingTime="0.00" waitingCount="0" stopTime="0.00" timeLoss="32.10" rerouteNo="0" devices="tripinfo_16" vType="DEFAULT_VEHTYPE" speedFactor="1.08" vaporized=""/>
    <tripinfo id="92" depart="85.00" departLane="918280985_0" departPos="5.10" departSpeed="7.50" departDelay="0.00" arrival="147.00" arrivalLane="15374898#0-AddedOffRampEdge_0" arrivalPos="100.00" arrivalSpeed="26.90" duration="62.00" routeLength="996.81" waitingTime="1.00" waitingCount="1" stopTime="0.00" timeLoss="21.64" rerouteNo="0" devices="tripinfo_92" vType="DEFAULT_VEHTYPE" speedFactor="0.98" vaporized=""/>
    <tripinfo id="40" depart="40.00" departLane="318908683#0_0" departPos="5.10" departSpeed="6.72" departDelay="0.00" arrival="148.00" arrivalLane="-105681660#20_0" arrivalPos="806.12" arrivalSpeed="22.72" duration="108.00" routeLength="1436.85" waitingTime="8.00" waitingCount="2" stopTime="0.00" timeLoss="43.50" rerouteNo="0" devices="tripinfo_40" vType="DEFAULT_VEHTYPE" speedFactor="1.06" vaporized=""/>
    <tripinfo id="70" depart="69.00" departLane="-260998164#3_0" departPos="5.10" departSpeed="29.23" departDelay="0.00" arrival="148.00" arrivalLane="-597602756#0_0" arrivalPos="325.99" arrivalSpeed="23.11" duration="79.00" routeLength="1231.40" waitingTime="0.00" waitingCount="0" stopTime="0.00" timeLoss="10.04" rerouteNo="0" devices="tripinfo_70" vType="DEFAULT_VEHTYPE" speedFactor="1.05" vaporized=""/>
    <tripinfo id="4" depart="7.00" departLane="105681660#12_0" departPos="5.10" departSpeed="22.00" departDelay="0.00" arrival="152.00" arrivalLane="260998164#0_0" arrivalPos="257.55" arrivalSpeed="32.92" duration="145.00" routeLength="2169.41" waitingTime="20.00" waitingCount="2" stopTime="0.00" timeLoss="57.40" rerouteNo="0" devices="tripinfo_4" vType="DEFAULT_VEHTYPE" speedFactor="1.20" vaporized=""/>
    <tripinfo id="66" depart="63.00" departLane="422688973_0" departPos="5.10" departSpeed="0.00" departDelay="0.00" arrival="154.00" arrivalLane="-597602753#1_0" arrivalPos="143.59" arrivalSpeed="21.37" duration="91.00" routeLength="1063.91" waitingTime="0.00" waitingCount="0" stopTime="0.00" timeLoss="18.11" rerouteNo="0" devices="tripinfo_66" vType="DEFAULT_VEHTYPE" speedFactor="0.98" vaporized=""/>
    <tripinfo id="13" depart="14.00" departLane="918280985_0" departPos="5.10" departSpeed="12.87" departDelay="0.00" arrival="159.00" arrivalLane="-597602756#0_0" arrivalPos="325.99" arrivalSpeed="20.10" duration="145.00" routeLength="1891.55" waitingTime="20.00" waitingCount="1" stopTime="0.00" timeLoss="43.94" rerouteNo="0" devices="tripinfo_13" vType="DEFAULT_VEHTYPE" speedFactor="0.93" vaporized=""/>
    <tripinfo id="32" depart="29.00" departLane="597602756#0_0" departPos="5.10" departSpeed="18.55" departDelay="0.00" arrival="160.00" arrivalLane="-105681660#20_0" arrivalPos="806.12" arrivalSpeed="18.42" duration="131.00" routeLength="1867.67" waitingTime="3.00" waitingCount="1" stopTime="0.00" timeLoss="26.75" rerouteNo="0" devices="tripinfo_32" vType="DEFAULT_VEHTYPE" speedFactor="0.83" vaporized=""/>
    <tripinfo id="87" depart="82.00" departLane="597602756#0_0" departPos="5.10" departSpeed="24.36" departDelay="0.00" arrival="160.00" arrivalLane="260998164#0_0" arrivalPos="257.55" arrivalSpeed="29.76" duration="78.00" routeLength="1239.91" waitingTime="0.00" waitingCount="0" stopTime="0.00" timeLoss="10.78" rerouteNo="0" devices="tripinfo_87" vType="DEFAULT_VEHTYPE" speedFactor="1.10" vaporized=""/>
    <tripinfo id="82" depart="77.00" departLane="597602753#0_0" departPos="5.10" departSpeed="20.83" departDelay="0.00" arrival="161.00" arrivalLane="-105681660#20_0" arrivalPos="806.12" arrivalSpeed="19.66" duration="84.00" routeLength="1387.70" waitingTime="7.00" waitingCount="1" stopTime="0.00" timeLoss="24.19" rerouteNo="0" devices="tripinfo_82" vType="DEFAULT_VEHTYPE" speedFactor="1.06" vaporized=""/>
    <tripinfo id="77" depart="74.00" departLane="422688973_1" departPos="5.10" departSpeed="15.75" departDelay="0.00" arrival="162.00" arrivalLane="15374898#0-AddedOffRampEdge_0" arrivalPos="100.00" arrivalSpeed="26.00" duration="88.00" routeLength="1006.54" waitingTime="31.00" waitingCount="1" stopTime="0.00" timeLoss="49.36" rerouteNo="0" devices="tripinfo_77" vType="DEFAULT_VEHTYPE" speedFactor="0.97" vaporized=""/>
    <tripinfo id="31" depart="27.00" departLane="422688973_1" departPos="5.10" departSpeed="15.75" departDelay="0.00" arrival="163.00" arrivalLane="-597602756#0_0" arrivalPos="325.99" arrivalSpeed="19.62" duration="136.00" routeLength="1901.28" waitingTime="16.00" waitingCount="1" stopTime="0.00" timeLoss="38.77" rerouteNo="0" devices="tripinfo_31" vType="DEFAULT_VEHTYPE" speedFactor="0.94" vaporized=""/>
    <tripinfo id="45" depart="44.00" departLane="422688973_1" departPos="5.10" departSpeed="13.62" departDelay="0.00" arrival="163.00" arrivalLane="-105681660#20_0" arrivalPos="806.12" arrivalSpeed="20.84" duration="119.00" routeLength="1352.23" waitingTime="25.00" waitingCount="3" stopTime="0.00" timeLoss="50.56" rerouteNo="0" devices="tripinfo_45" vType="DEFAULT_VEHTYPE" speedFactor="1.10" vaporized=""/>
    <tripinfo id="99" depart="88.00" departLane="422688973_1" departPos="5.10" departSpeed="13.62" departDelay="0.00" arrival="163.00" arrivalLane="15374898#0-AddedOffRampEdge_0" arrivalPos="100.00" arrivalSpeed="30.09" duration="75.00" routeLength="1006.54" waitingTime="17.00" waitingCount="1" stopTime="0.00" timeLoss="41.73" rerouteNo="0" devices="tripinfo_99" vType="DEFAULT_VEHTYPE" speedFactor="1.12" vaporized=""/>
    <tripinfo id="64" depart="60.00" departLane="422688973_0" departPos="5.10" departSpeed="0.00" departDelay="0.00" arrival="164.00" arrivalLane="-105681660#20_0" arrivalPos="806.12" arrivalSpeed="20.40" duration="104.00" routeLength="1352.23" waitingTime="10.00" waitingCount="1" stopTime="0.00" timeLoss="34.65" rerouteNo="0" devices="tripinfo_64" vType="DEFAULT_VEHTYPE" speedFactor="1.08" vaporized=""/>
    <tripinfo id="41" depart="40.00" departLane="422688973_2" departPos="5.10" departSpeed="15.75" departDelay="0.00" arrival="165.00" arrivalLane="-597602756#0_0" arrivalPos="325.99" arrivalSpeed="25.17" duration="125.00" routeLength="1901.28" waitingTime="10.00" waitingCount="3" stopTime="0.00" timeLoss="46.96" rerouteNo="0" devices="tripinfo_41" vType="DEFAULT_VEHTYPE" speedFactor="1.17" vaporized=""/>
    <tripinfo id="104" depart="94.00" departLane="422688973_2" departPos="5.10" departSpeed="3.27" departDelay="0.00" arrival="165.00" arrivalLane="15374898#0-AddedOffRampEdge_0" arrivalPos="100.00" arrivalSpeed="28.15" duration="71.00" routeLength="1006.54" waitingTime="12.00" waitingCount="1" stopTime="0.00" timeLoss="34.59" rerouteNo="0" devices="tripinfo_104" vType="DEFAULT_VEHTYPE" speedFactor="1.04" vaporized=""/>
    <tripinfo id="52" depart="48.00" departLane="597602753#0_0" departPos="5.10" departSpeed="21.06" departDelay="0.00" arrival="166.00" arrivalLane="422688976#1_0" arrivalPos="294.40" arrivalSpeed="25.92" duration="118.00" routeLength="1286.53" waitingTime="20.00" waitingCount="1" stopTime="0.00" timeLoss="35.23" rerouteNo="0" devices="tripinfo_52" vType="DEFAULT_VEHTYPE" speedFactor="0.95" vaporized=""/>
    <tripinfo id="59" depart="55.00" departLane="597602756#0_0" departPos="5.10" departSpeed="22.94" departDelay="0.00" arrival="166.00" arrivalLane="-597602753#1_0" arrivalPos="143.59" arrivalSpeed="22.79" duration="111.00" routeLength="1638.96" waitingTime="7.00" waitingCount="1" stopTime="0.00" timeLoss="37.73" rerouteNo="0" devices="tripinfo_59" vType="DEFAULT_VEHTYPE" speedFactor="1.03" vaporized=""/>
    <tripinfo id="91" depart="84.00" departLane="597602756#0_0" departPos="5.10" departSpeed="22.03" departDelay="0.00" arrival="168.00" arrivalLane="260998164#0_0" arrivalPos="257.55" arrivalSpeed="26.85" duration="84.00" routeLength="1239.91" waitingTime="0.00" waitingCount="0" stopTime="0.00" timeLoss="10.13" rerouteNo="0" devices="tripinfo_91" vType="DEFAULT_VEHTYPE" speedFactor="0.99" vaporized=""/>
    <tripinfo id="79" depart="75.00" departLane="422685671#2_0" departPos="5.10" departSpeed="29.80" departDelay="0.00" arrival="171.00" arrivalLane="-597602753#1_0" arrivalPos="143.59" arrivalSpeed="23.46" duration="96.00" routeLength="1584.34" waitingTime="15.00" waitingCount="1" stopTime="0.00" timeLoss="31.78" rerouteNo="0" devices="tripinfo_79" vType="DEFAULT_VEHTYPE" speedFactor="1.07" vaporized=""/>
    <tripinfo id="43" depart="43.00" departLane="422685671#2_1" departPos="5.10" departSpeed="27.87" departDelay="0.00" arrival="175.00" arrivalLane="-597602756#0_0" arrivalPos="325.99" arrivalSpeed="21.74" duration="132.00" routeLength="1760.65" waitingTime="28.00" waitingCount="1" stopTime="0.00" timeLoss="47.02" rerouteNo="0" devices="tripinfo_43" vType="DEFAULT_VEHTYPE" speedFactor="1.00" vaporized=""/>
    <tripinfo id="7" depart="12.00" departLane="597602756#0_0" departPos="5.10" departSpeed="20.08" departDelay="1.00" arrival="176.00" arrivalLane="422688976#1_0" arrivalPos="294.40" arrivalSpeed="30.10" duration="164.00" routeLength="1985.14" waitingTime="48.00" waitingCount="2" stopTime="0.00" timeLoss="86.74" rerouteNo="0" devices="tripinfo_7" vType="DEFAULT_VEHTYPE" speedFactor="1.09" vaporized=""/>
    <tripinfo id="44" depart="45.00" departLane="597602756#0_0" departPos="5.10" departSpeed="18.06" departDelay="1.00" arrival="177.00" arrivalLane="422688976#1_2" arrivalPos="294.40" arrivalSpeed="26.68" duration="132.00" routeLength="1985.14" waitingTime="10.00" waitingCount="2" stopTime="0.00" timeLoss="43.78" rerouteNo="0" devices="tripinfo_44" vType="DEFAULT_VEHTYPE" speedFactor="0.96" vaporized=""/>
    <tripinfo id="71" depart="70.00" departLane="422685671#2_0" departPos="5.10" departSpeed="23.91" departDelay="0.00" arrival="178.00" arrivalLane="422688976#1_1" arrivalPos="294.40" arrivalSpeed="22.90" duration="108.00" routeLength="1317.05" waitingTime="30.00" waitingCount="2" stopTime="0.00" timeLoss="50.49" rerouteNo="0" devices="tripinfo_71" vType="DEFAULT_VEHTYPE" speedFactor="0.86" vaporized=""/>
    <tripinfo id="47" depart="46.00" departLane="597602756#0_0" departPos="5.10" departSpeed="15.51" departDelay="1.00" arrival="180.00" arrivalLane="422688976#1_1" arrivalPos="294.40" arrivalSpeed="27.55" duration="134.00" routeLength="1985.14" waitingTime="9.00" waitingCount="2" stopTime="0.00" timeLoss="51.30" rerouteNo="0" devices="tripinfo_47" vType="DEFAULT_VEHTYPE" speedFactor="1.02" vaporized=""/>
    <tripinfo id="88" depart="83.00" departLane="318908683#0_0" departPos="5.10" departSpeed="16.35" departDelay="0.00" arrival="180.00" arrivalLane="260998164#0_0" arrivalPos="257.55" arrivalSpeed="31.41" duration="97.00" routeLength="939.98" waitingTime="42.00" waitingCount="1" stopTime="0.00" timeLoss="64.86" rerouteNo="0" devices="tripinfo_88" vType="DEFAULT_VEHTYPE" speedFactor="1.18" vaporized=""/>
    <tripinfo id="37" depart="34.00" departLane="-260998164#3_0" departPos="5.10" departSpeed="25.02" departDelay="0.00" arrival="184.00" arrivalLane="-105681660#20_0" arrivalPos="806.12" arrivalSpeed="18.78" duration="150.00" routeLength="2208.42" waitingTime="19.00" waitingCount="1" stopTime="0.00" timeLoss="45.34" rerouteNo="0" devices="tripinfo_37" vType="DEFAULT_VEHTYPE" speedFactor="0.90" vaporized=""/>
    <tripinfo id="106" depart="96.00" departLane="318908683#0_0" departPos="5.10" departSpeed="13.26" departDelay="0.00" arrival="184.00" arrivalLane="260998164#0_0" arrivalPos="257.55" arrivalSpeed="26.08" duration="88.00" routeLength="939.98" waitingTime="31.00" waitingCount="1" stopTime="0.00" timeLoss="48.84" rerouteNo="0" devices="tripinfo_106" vType="DEFAULT_VEHTYPE" speedFactor="0.95" vaporized=""/>
    <tripinfo id="62" depart="59.00" departLane="-260998164#3_0" departPos="5.10" departSpeed="24.93" departDelay="0.00" arrival="186.00" arrivalLane="-105681660#20_0" arrivalPos="806.12" arrivalSpeed="19.73" duration="127.00" routeLength="2208.42" waitingTime="0.00" waitingCount="0" stopTime="0.00" timeLoss="22.21" rerouteNo="0" devices="tripinfo_62" vType="DEFAULT_VEHTYPE" speedFactor="0.90" vaporized=""/>
    <tripinfo id="53" depart="48.00" departLane="105681660#12_0" departPos="5.10" departSpeed="21.93" departDelay="0.00" arrival="187.00" arrivalLane="260998164#0_0" arrivalPos="257.55" arrivalSpeed="26.54" duration="139.00" routeLength="2169.41" waitingTime="10.00" waitingCount="1" stopTime="0.00" timeLoss="31.98" rerouteNo="0" devices="tripinfo_53" vType="DEFAULT_VEHTYPE" speedFactor="0.99" vaporized=""/>