<?xml version="1.0" encoding="UTF-8"?>

<!-- generated on 2023-05-01 19:02:30 by Eclipse SUMO sumo Version 1.16.0
<configuration xmlns:xsi="http://www.w3.org/2001/XMLSchema-instance" xsi:noNamespaceSchemaLocation="http://sumo.dlr.de/xsd/sumoConfiguration.xsd">

    <input>
        <net-file value="C:\Users\Local_Man\Desktop\Stolen%20Music\school%20stuff%20for%20college\Semester%2015%20(UH%20Graduate%20School)\COSC%206364%20Nikolaos\SUMO_Project\COSC6364_Project\configurations\maps\Braess_Homebrew_fixed1.net.xml"/>
        <route-files value="./configurations/Rounds/Braess_Homebrew_fixed1.net.xml-small_test-0/Macroscopic_DUE/004/Trips_File_004.rou.xml"/>
    </input>

    <output>
        <summary-output value="./configurations/Rounds/Braess_Homebrew_fixed1.net.xml-small_test-0/Macroscopic_DUE/004/summary.xml"/>
        <tripinfo-output value="./configurations/Rounds/Braess_Homebrew_fixed1.net.xml-small_test-0/Macroscopic_DUE/004/trips.trips.xml"/>
        <statistic-output value="./configurations/Rounds/Braess_Homebrew_fixed1.net.xml-small_test-0/Macroscopic_DUE/004/stats_output.xml"/>
    </output>

    <time>
        <begin value="0"/>
    </time>

    <report>
        <log value="./configurations/Rounds/Braess_Homebrew_fixed1.net.xml-small_test-0/Macroscopic_DUE/004/log.sumo.log"/>
        <no-step-log value="true"/>
    </report>

    <gui_only>
        <quit-on-end value="true"/>
    </gui_only>

</configuration>
-->

<tripinfos xmlns:xsi="http://www.w3.org/2001/XMLSchema-instance" xsi:noNamespaceSchemaLocation="http://sumo.dlr.de/xsd/tripinfo_file.xsd">
    <tripinfo id="2" depart="0.00" departLane="E0_0" departPos="5.10" departSpeed="19.50" departDelay="0.00" arrival="94.00" arrivalLane="E3_0" arrivalPos="90.46" arrivalSpeed="28.43" duration="94.00" routeLength="1314.99" waitingTime="0.00" waitingCount="0" stopTime="0.00" timeLoss="9.57" rerouteNo="0" devices="tripinfo_2" vType="DEFAULT_VEHTYPE" speedFactor="0.98" vaporized=""/>
    <tripinfo id="4" depart="2.00" departLane="E0_0" departPos="5.10" departSpeed="14.44" departDelay="1.00" arrival="95.00" arrivalLane="E3_0" arrivalPos="90.46" arrivalSpeed="30.29" duration="93.00" routeLength="1314.99" waitingTime="0.00" waitingCount="0" stopTime="0.00" timeLoss="24.78" rerouteNo="0" devices="tripinfo_4" vType="DEFAULT_VEHTYPE" speedFactor="1.20" vaporized=""/>
    <tripinfo id="5" depart="6.00" departLane="E0_0" departPos="5.10" departSpeed="20.92" departDelay="0.00" arrival="97.00" arrivalLane="E3_0" arrivalPos="90.46" arrivalSpeed="31.12" duration="91.00" routeLength="1314.99" waitingTime="0.00" waitingCount="0" stopTime="0.00" timeLoss="12.07" rerouteNo="0" devices="tripinfo_5" vType="DEFAULT_VEHTYPE" speedFactor="1.05" vaporized=""/>
    <tripinfo id="7" depart="8.00" departLane="E0_0" departPos="5.10" departSpeed="16.37" departDelay="1.00" arrival="109.00" arrivalLane="E3_0" arrivalPos="90.46" arrivalSpeed="27.68" duration="101.00" routeLength="1314.99" waitingTime="0.00" waitingCount="0" stopTime="0.00" timeLoss="13.39" rerouteNo="0" devices="tripinfo_7" vType="DEFAULT_VEHTYPE" speedFactor="0.94" vaporized=""/>
    <tripinfo id="9" depart="10.00" departLane="E0_0" departPos="5.10" departSpeed="10.49" departDelay="3.00" arrival="111.00" arrivalLane="E3_0" arrivalPos="90.46" arrivalSpeed="30.98" duration="101.00" routeLength="1314.99" waitingTime="0.00" waitingCount="0" stopTime="0.00" timeLoss="25.09" rerouteNo="0" devices="tripinfo_9" vType="DEFAULT_VEHTYPE" speedFactor="1.09" vaporized=""/>
    <tripinfo id="10" depart="11.00" departLane="E0_0" departPos="5.10" departSpeed="5.56" departDelay="3.00" arrival="119.00" arrivalLane="E3_0" arrivalPos="90.46" arrivalSpeed="26.40" duration="108.00" routeLength="1314.99" waitingTime="0.00" waitingCount="0" stopTime="0.00" timeLoss="19.08" rerouteNo="0" devices="tripinfo_10" vType="DEFAULT_VEHTYPE" speedFactor="0.92" vaporized=""/>
    <tripinfo id="13" depart="17.00" departLane="E0_0" departPos="5.10" departSpeed="3.54" departDelay="7.00" arrival="126.00" arrivalLane="E3_0" arrivalPos="90.46" arrivalSpeed="27.60" duration="109.00" routeLength="1314.99" waitingTime="0.00" waitingCount="0" stopTime="0.00" timeLoss="20.16" rerouteNo="0" devices="tripinfo_13" vType="DEFAULT_VEHTYPE" speedFactor="0.93" vaporized=""/>
    <tripinfo id="15" depart="21.00" departLane="E0_0" departPos="5.10" departSpeed="1.85" departDelay="9.00" arrival="128.00" arrivalLane="E3_0" arrivalPos="90.46" arrivalSpeed="26.80" duration="107.00" routeLength="1314.99" waitingTime="0.00" waitingCount="0" stopTime="0.00" timeLoss="19.71" rerouteNo="0" devices="tripinfo_15" vType="DEFAULT_VEHTYPE" speedFactor="0.94" vaporized=""/>
    <tripinfo id="16" depart="24.00" departLane="E0_0" departPos="5.10" departSpeed="3.96" departDelay="12.00" arrival="130.00" arrivalLane="E3_0" arrivalPos="90.46" arrivalSpeed="30.89" duration="106.00" routeLength="1314.99" waitingTime="0.00" waitingCount="0" stopTime="0.00" timeLoss="29.86" rerouteNo="0" devices="tripinfo_16" vType="DEFAULT_VEHTYPE" speedFactor="1.08" vaporized=""/>
    <tripinfo id="17" depart="26.00" departLane="E0_0" departPos="5.10" departSpeed="2.10" departDelay="13.00" arrival="131.00" arrivalLane="E3_0" arrivalPos="90.46" arrivalSpeed="30.29" duration="105.00" routeLength="1314.99" waitingTime="0.00" waitingCount="0" stopTime="0.00" timeLoss="23.74" rerouteNo="0" devices="tripinfo_17" vType="DEFAULT_VEHTYPE" speedFactor="1.01" vaporized=""/>
    <tripinfo id="18" depart="29.00" departLane="E0_0" departPos="5.10" departSpeed="4.53" departDelay="16.00" arrival="133.00" arrivalLane="E3_0" arrivalPos="90.46" arrivalSpeed="30.76" duration="104.00" routeLength="1314.99" waitingTime="0.00" waitingCount="0" stopTime="0.00" timeLoss="23.58" rerouteNo="0" devices="tripinfo_18" vType="DEFAULT_VEHTYPE" speedFactor="1.03" vaporized=""/>
    <tripinfo id="19" depart="31.00" departLane="E0_0" departPos="5.10" departSpeed="3.51" departDelay="16.00" arrival="144.00" arrivalLane="E3_0" arrivalPos="90.46" arrivalSpeed="26.43" duration="113.00" routeLength="1314.99" waitingTime="0.00" waitingCount="0" stopTime="0.00" timeLoss="20.43" rerouteNo="0" devices="tripinfo_19" vType="DEFAULT_VEHTYPE" speedFactor="0.89" vaporized=""/>
    <tripinfo id="25" depart="44.00" departLane="E0_0" departPos="5.10" departSpeed="4.94" departDelay="21.00" arrival="145.00" arrivalLane="E3_0" arrivalPos="90.46" arrivalSpeed="27.71" duration="101.00" routeLength="1314.99" waitingTime="0.00" waitingCount="0" stopTime="0.00" timeLoss="29.74" rerouteNo="0" devices="tripinfo_25" vType="DEFAULT_VEHTYPE" speedFactor="1.15" vaporized=""/>
    <tripinfo id="26" depart="46.00" departLane="E0_0" departPos="5.10" departSpeed="3.73" departDelay="23.00" arrival="147.00" arrivalLane="E3_0" arrivalPos="90.46" arrivalSpeed="29.70" duration="101.00" routeLength="1314.99" waitingTime="0.00" waitingCount="0" stopTime="0.00" timeLoss="27.08" rerouteNo="0" devices="tripinfo_26" vType="DEFAULT_VEHTYPE" speedFactor="1.12" vaporized=""/>
    <tripinfo id="27" depart="49.00" departLane="E0_0" departPos="5.10" departSpeed="6.72" departDelay="26.00" arrival="151.00" arrivalLane="E3_0" arrivalPos="90.46" arrivalSpeed="29.52" duration="102.00" routeLength="1314.99" waitingTime="0.00" waitingCount="0" stopTime="0.00" timeLoss="19.57" rerouteNo="0" devices="tripinfo_27" vType="DEFAULT_VEHTYPE" speedFactor="0.99" vaporized=""/>
    <tripinfo id="29" depart="53.00" departLane="E0_0" departPos="5.10" departSpeed="4.41" departDelay="29.00" arrival="154.00" arrivalLane="E3_0" arrivalPos="90.46" arrivalSpeed="30.05" duration="101.00" routeLength="1314.99" waitingTime="0.00" waitingCount="0" stopTime="0.00" timeLoss="20.35" rerouteNo="0" devices="tripinfo_29" vType="DEFAULT_VEHTYPE" speedFactor="1.02" vaporized=""/>
    <tripinfo id="30" depart="55.00" departLane="E0_0" departPos="5.10" departSpeed="4.05" departDelay="30.00" arrival="163.00" arrivalLane="E3_0" arrivalPos="90.46" arrivalSpeed="27.98" duration="108.00" routeLength="1314.99" waitingTime="0.00" waitingCount="0" stopTime="0.00" timeLoss="20.41" rerouteNo="0" devices="tripinfo_30" vType="DEFAULT_VEHTYPE" speedFactor="0.94" vaporized=""/>
    <tripinfo id="31" depart="58.00" departLane="E0_0" departPos="5.10" departSpeed="6.78" departDelay="33.00" arrival="164.00" arrivalLane="E3_0" arrivalPos="90.46" arrivalSpeed="29.40" duration="106.00" routeLength="1314.99" waitingTime="0.00" waitingCount="0" stopTime="0.00" timeLoss="31.58" rerouteNo="0" devices="tripinfo_31" vType="DEFAULT_VEHTYPE" speedFactor="1.10" vaporized=""/>
    <tripinfo id="3" depart="1.00" departLane="E0_0" departPos="5.10" departSpeed="16.96" departDelay="0.00" arrival="174.00" arrivalLane="E3_0" arrivalPos="90.46" arrivalSpeed="23.82" duration="173.00" routeLength="1317.38" waitingTime="71.00" waitingCount="1" stopTime="0.00" timeLoss="93.79" rerouteNo="0" devices="tripinfo_3" vType="DEFAULT_VEHTYPE" speedFactor="1.08" vaporized=""/>
    <tripinfo id="32" depart="60.00" departLane="E0_0" departPos="5.10" departSpeed="7.92" departDelay="32.00" arrival="179.00" arrivalLane="E3_0" arrivalPos="90.46" arrivalSpeed="24.61" duration="119.00" routeLength="1314.99" waitingTime="0.00" waitingCount="0" stopTime="0.00" timeLoss="20.05" rerouteNo="0" devices="tripinfo_32" vType="DEFAULT_VEHTYPE" speedFactor="0.83" vaporized=""/>
    <tripinfo id="34" depart="65.00" departLane="E0_0" departPos="5.10" departSpeed="2.91" departDelay="36.00" arrival="180.00" arrivalLane="E3_0" arrivalPos="90.46" arrivalSpeed="26.98" duration="115.00" routeLength="1314.99" waitingTime="0.00" waitingCount="0" stopTime="0.00" timeLoss="37.93" rerouteNo="0" devices="tripinfo_34" vType="DEFAULT_VEHTYPE" speedFactor="1.07" vaporized=""/>
    <tripinfo id="6" depart="7.00" departLane="E0_0" departPos="5.10" departSpeed="19.19" departDelay="0.00" arrival="191.00" arrivalLane="E3_0" arrivalPos="90.46" arrivalSpeed="25.95" duration="184.00" routeLength="1317.38" waitingTime="77.00" waitingCount="2" stopTime="0.00" timeLoss="104.42" rerouteNo="0" devices="tripinfo_6" vType="DEFAULT_VEHTYPE" speedFactor="1.08" vaporized=""/>
    <tripinfo id="36" depart="70.00" departLane="E0_0" departPos="5.10" departSpeed="4.76" departDelay="38.00" arrival="197.00" arrivalLane="E3_0" arrivalPos="90.46" arrivalSpeed="22.23" duration="127.00" routeLength="1314.99" waitingTime="0.00" waitingCount="0" stopTime="0.00" timeLoss="20.09" rerouteNo="0" devices="tripinfo_36" vType="DEFAULT_VEHTYPE" speedFactor="0.77" vaporized=""/>
    <tripinfo id="38" depart="74.00" departLane="E0_0" departPos="5.10" departSpeed="6.19" departDelay="40.00" arrival="198.00" arrivalLane="E3_0" arrivalPos="90.46" arrivalSpeed="24.00" duration="124.00" routeLength="1314.99" waitingTime="0.00" waitingCount="0" stopTime="0.00" timeLoss="43.68" rerouteNo="0" devices="tripinfo_38" vType="DEFAULT_VEHTYPE" speedFactor="1.02" vaporized=""/>
    <tripinfo id="39" depart="76.00" departLane="E0_0" departPos="5.10" departSpeed="5.35" departDelay="41.00" arrival="200.00" arrivalLane="E3_0" arrivalPos="90.46" arrivalSpeed="26.15" duration="124.00" routeLength="1314.99" waitingTime="0.00" waitingCount="0" stopTime="0.00" timeLoss="29.89" rerouteNo="0" devices="tripinfo_39" vType="DEFAULT_VEHTYPE" speedFactor="0.88" vaporized=""/>
    <tripinfo id="40" depart="78.00" departLane="E0_0" departPos="5.10" departSpeed="4.82" departDelay="43.00" arrival="201.00" arrivalLane="E3_0" arrivalPos="90.46" arrivalSpeed="25.26" duration="123.00" routeLength="1314.99" waitingTime="0.00" waitingCount="0" stopTime="0.00" timeLoss="45.88" rerouteNo="0" devices="tripinfo_40" vType="DEFAULT_VEHTYPE" speedFactor="1.06" vaporized=""/>
    <tripinfo id="42" depart="82.00" departLane="E0_0" departPos="5.10" departSpeed="2.84" departDelay="43.00" arrival="203.00" arrivalLane="E3_0" arrivalPos="90.46" arrivalSpeed="25.71" duration="121.00" routeLength="1314.99" waitingTime="0.00" waitingCount="0" stopTime="0.00" timeLoss="42.20" rerouteNo="0" devices="tripinfo_42" vType="DEFAULT_VEHTYPE" speedFactor="1.05" vaporized=""/>
    <tripinfo id="43" depart="85.00" departLane="E0_0" departPos="5.10" departSpeed="5.55" departDelay="43.00" arrival="204.00" arrivalLane="E3_0" arrivalPos="90.46" arrivalSpeed="26.91" duration="119.00" routeLength="1314.99" waitingTime="0.00" waitingCount="0" stopTime="0.00" timeLoss="36.99" rerouteNo="0" devices="tripinfo_43" vType="DEFAULT_VEHTYPE" speedFactor="1.00" vaporized=""/>
    <tripinfo id="44" depart="87.00" departLane="E0_0" departPos="5.10" departSpeed="3.02" departDelay="45.00" arrival="206.00" arrivalLane="E3_0" arrivalPos="90.46" arrivalSpeed="28.78" duration="119.00" routeLength="1314.99" waitingTime="0.00" waitingCount="0" stopTime="0.00" timeLoss="43.63" rerouteNo="0" devices="tripinfo_44" vType="DEFAULT_VEHTYPE" speedFactor="1.10" vaporized=""/>
    <tripinfo id="45" depart="90.00" departLane="E0_0" departPos="5.10" departSpeed="3.49" departDelay="48.00" arrival="207.00" arrivalLane="E3_0" arrivalPos="90.46" arrivalSpeed="26.31" duration="117.00" routeLength="1314.99" waitingTime="0.00" waitingCount="0" stopTime="0.00" timeLoss="25.72" rerouteNo="0" devices="tripinfo_45" vType="DEFAULT_VEHTYPE" speedFactor="0.90" vaporized=""/>
    <tripinfo id="46" depart="93.00" departLane="E0_0" departPos="5.10" departSpeed="5.62" departDelay="50.00" arrival="208.00" arrivalLane="E3_0" arrivalPos="90.46" arrivalSpeed="28.19" duration="115.00" routeLength="1314.99" waitingTime="0.00" waitingCount="0" stopTime="0.00" timeLoss="30.00" rerouteNo="0" devices="tripinfo_46" vType="DEFAULT_VEHTYPE" speedFactor="0.96" vaporized=""/>
    <tripinfo id="49" depart="100.00" departLane="E0_0" departPos="5.10" departSpeed="3.85" departDelay="56.00" arrival="210.00" arrivalLane="E3_0" arrivalPos="90.46" arrivalSpeed="31.75" duration="110.00" routeLength="1314.99" waitingTime="0.00" waitingCount="0" stopTime="0.00" timeLoss="36.26" rerouteNo="0" devices="tripinfo_49" vType="DEFAULT_VEHTYPE" speedFactor="1.12" vaporized=""/>
    <tripinfo id="50" depart="102.00" departLane="E0_0" departPos="5.10" departSpeed="1.29" departDelay="57.00" arrival="211.00" arrivalLane="E3_0" arrivalPos="90.46" arrivalSpeed="29.48" duration="109.00" routeLength="1314.99" waitingTime="0.00" waitingCount="0" stopTime="0.00" timeLoss="26.52" rerouteNo="0" devices="tripinfo_50" vType="DEFAULT_VEHTYPE" speedFactor="1.00" vaporized=""/>
    <tripinfo id="51" depart="105.00" departLane="E0_0" departPos="5.10" departSpeed="2.18" departDelay="58.00" arrival="213.00" arrivalLane="E3_0" arrivalPos="90.46" arrivalSpeed="28.55" duration="108.00" routeLength="1314.99" waitingTime="0.00" waitingCount="0" stopTime="0.00" timeLoss="24.44" rerouteNo="0" devices="tripinfo_51" vType="DEFAULT_VEHTYPE" speedFactor="0.99" vaporized=""/>
    <tripinfo id="53" depart="110.00" departLane="E0_0" departPos="5.10" departSpeed="3.81" departDelay="62.00" arrival="223.00" arrivalLane="E3_0" arrivalPos="90.46" arrivalSpeed="26.39" duration="113.00" routeLength="1314.99" waitingTime="0.00" waitingCount="0" stopTime="0.00" timeLoss="22.15" rerouteNo="0" devices="tripinfo_53" vType="DEFAULT_VEHTYPE" speedFactor="0.91" vaporized=""/>
    <tripinfo id="54" depart="112.00" departLane="E0_0" departPos="5.10" departSpeed="0.40" departDelay="63.00" arrival="224.00" arrivalLane="E3_0" arrivalPos="90.46" arrivalSpeed="28.40" duration="112.00" routeLength="1314.99" waitingTime="0.00" waitingCount="0" stopTime="0.00" timeLoss="25.31" rerouteNo="0" devices="tripinfo_54" vType="DEFAULT_VEHTYPE" speedFactor="0.95" vaporized=""/>
    <tripinfo id="56" depart="118.00" departLane="E0_0" departPos="5.10" departSpeed="2.82" departDelay="65.00" arrival="228.00" arrivalLane="E3_0" arrivalPos="90.46" arrivalSpeed="27.73" duration="110.00" routeLength="1314.99" waitingTime="0.00" waitingCount="0" stopTime="0.00" timeLoss="21.04" rerouteNo="0" devices="tripinfo_56" vType="DEFAULT_VEHTYPE" speedFactor="0.93" vaporized=""/>
    <tripinfo id="60" depart="127.00" departLane="E0_0" departPos="5.10" departSpeed="2.30" departDelay="69.00" arrival="237.00" arrivalLane="E3_0" arrivalPos="90.46" arrivalSpeed="27.18" duration="110.00" routeLength="1314.99" waitingTime="0.00" waitingCount="0" stopTime="0.00" timeLoss="20.86" rerouteNo="0" devices="tripinfo_60" vType="DEFAULT_VEHTYPE" speedFactor="0.92" vaporized=""/>
    <tripinfo id="62" depart="133.00" departLane="E0_0" departPos="5.10" departSpeed="6.71" departDelay="74.00" arrival="245.00" arrivalLane="E3_0" arrivalPos="90.46" arrivalSpeed="26.37" duration="112.00" routeLength="1314.99" waitingTime="0.00" waitingCount="0" stopTime="0.00" timeLoss="19.93" rerouteNo="0" devices="tripinfo_62" vType="DEFAULT_VEHTYPE" speedFactor="0.90" vaporized=""/>
    <tripinfo id="64" depart="137.00" departLane="E0_0" departPos="5.10" departSpeed="6.57" departDelay="74.00" arrival="246.00" arrivalLane="E3_0" arrivalPos="90.46" arrivalSpeed="28.60" duration="109.00" routeLength="1314.99" waitingTime="0.00" waitingCount="0" stopTime="0.00" timeLoss="33.01" rerouteNo="0" devices="tripinfo_64" vType="DEFAULT_VEHTYPE" speedFactor="1.08" vaporized=""/>
    <tripinfo id="65" depart="139.00" departLane="E0_0" departPos="5.10" departSpeed="2.29" departDelay="76.00" arrival="248.00" arrivalLane="E3_0" arrivalPos="90.46" arrivalSpeed="28.90" duration="109.00" routeLength="1314.99" waitingTime="0.00" waitingCount="0" stopTime="0.00" timeLoss="24.19" rerouteNo="0" devices="tripinfo_65" vType="DEFAULT_VEHTYPE" speedFactor="0.98" vaporized=""/>
    <tripinfo id="66" depart="143.00" departLane="E0_0" departPos="5.10" departSpeed="5.36" departDelay="75.00" arrival="249.00" arrivalLane="E3_0" arrivalPos="90.46" arrivalSpeed="29.34" duration="106.00" routeLength="1314.99" waitingTime="0.00" waitingCount="0" stopTime="0.00" timeLoss="21.85" rerouteNo="0" devices="tripinfo_66" vType="DEFAULT_VEHTYPE" speedFactor="0.98" vaporized=""/>
    <tripinfo id="68" depart="147.00" departLane="E0_0" departPos="5.10" departSpeed="2.65" departDelay="74.00" arrival="254.00" arrivalLane="E3_0" arrivalPos="90.46" arrivalSpeed="28.15" duration="107.00" routeLength="1314.99" waitingTime="0.00" waitingCount="0" stopTime="0.00" timeLoss="19.43" rerouteNo="0" devices="tripinfo_68" vType="DEFAULT_VEHTYPE" speedFactor="0.94" vaporized=""/>
    <tripinfo id="75" depart="164.00" departLane="E0_0" departPos="5.10" departSpeed="7.36" departDelay="86.00" arrival="256.00" arrivalLane="E3_0" arrivalPos="90.46" arrivalSpeed="32.26" duration="92.00" routeLength="1314.99" waitingTime="0.00" waitingCount="0" stopTime="0.00" timeLoss="16.71" rerouteNo="0" devices="tripinfo_75" vType="DEFAULT_VEHTYPE" speedFactor="1.10" vaporized=""/>
    <tripinfo id="76" depart="166.00" departLane="E0_0" departPos="5.10" departSpeed="8.31" departDelay="88.00" arrival="257.00" arrivalLane="E3_0" arrivalPos="90.46" arrivalSpeed="34.04" duration="91.00" routeLength="1314.99" waitingTime="0.00" waitingCount="0" stopTime="0.00" timeLoss="19.30" rerouteNo="0" devices="tripinfo_76" vType="DEFAULT_VEHTYPE" speedFactor="1.14" vaporized=""/>
    <tripinfo id="8" depart="9.00" departLane="E0_0" departPos="5.10" departSpeed="13.87" departDelay="2.00" arrival="267.00" arrivalLane="E3_0" arrivalPos="90.46" arrivalSpeed="22.47" duration="258.00" routeLength="1317.38" waitingTime="140.00" waitingCount="3" stopTime="0.00" timeLoss="173.68" rerouteNo="0" devices="tripinfo_8" vType="DEFAULT_VEHTYPE" speedFactor="1.02" vaporized=""/>
    <tripinfo id="80" depart="174.00" departLane="E0_0" departPos="5.10" departSpeed="3.31" departDelay="89.00" arrival="270.00" arrivalLane="E3_0" arrivalPos="90.46" arrivalSpeed="31.06" duration="96.00" routeLength="1314.99" waitingTime="0.00" waitingCount="0" stopTime="0.00" timeLoss="19.76" rerouteNo="0" devices="tripinfo_80" vType="DEFAULT_VEHTYPE" speedFactor="1.08" vaporized=""/>
    <tripinfo id="83" depart="181.00" departLane="E0_0" departPos="5.10" departSpeed="4.99" departDelay="92.00" arrival="278.00" arrivalLane="E3_0" arrivalPos="90.46" arrivalSpeed="31.16" duration="97.00" routeLength="1314.99" waitingTime="0.00" waitingCount="0" stopTime="0.00" timeLoss="19.46" rerouteNo="0" devices="tripinfo_83" vType="DEFAULT_VEHTYPE" speedFactor="1.06" vaporized=""/>
    <tripinfo id="86" depart="187.00" departLane="E0_0" departPos="5.10" departSpeed="3.80" departDelay="98.00" arrival="287.00" arrivalLane="E3_0" arrivalPos="90.46" arrivalSpeed="29.67" duration="100.00" routeLength="1314.99" waitingTime="0.00" waitingCount="0" stopTime="0.00" timeLoss="19.74" rerouteNo="0" devices="tripinfo_86" vType="DEFAULT_VEHTYPE" speedFactor="1.02" vaporized=""/>
    <tripinfo id="88" depart="191.00" departLane="E0_0" departPos="5.10" departSpeed="0.08" departDelay="98.00" arrival="294.00" arrivalLane="E3_0" arrivalPos="90.46" arrivalSpeed="29.04" duration="103.00" routeLength="1314.99" waitingTime="1.00" waitingCount="1" stopTime="0.00" timeLoss="18.63" rerouteNo="0" devices="tripinfo_88" vType="DEFAULT_VEHTYPE" speedFactor="0.97" vaporized=""/>
    <tripinfo id="89" depart="195.00" departLane="E0_0" departPos="5.10" departSpeed="4.83" departDelay="100.00" arrival="296.00" arrivalLane="E3_0" arrivalPos="90.46" arrivalSpeed="32.23" duration="101.00" routeLength="1314.99" waitingTime="0.00" waitingCount="0" stopTime="0.00" timeLoss="30.64" rerouteNo="0" devices="tripinfo_89" vType="DEFAULT_VEHTYPE" speedFactor="1.18" vaporized=""/>
    <tripinfo id="92" depart="201.00" departLane="E0_0" departPos="5.10" departSpeed="2.92" departDelay="102.00" arrival="305.00" arrivalLane="E3_0" arrivalPos="90.46" arrivalSpeed="28.52" duration="104.00" routeLength="1314.99" waitingTime="0.00" waitingCount="0" stopTime="0.00" timeLoss="19.46" rerouteNo="0" devices="tripinfo_92" vType="DEFAULT_VEHTYPE" speedFactor="0.98" vaporized=""/>
    <tripinfo id="93" depart="204.00" departLane="E0_0" departPos="5.10" departSpeed="4.85" departDelay="103.00" arrival="311.00" arrivalLane="E3_0" arrivalPos="90.46" arrivalSpeed="28.06" duration="107.00" routeLength="1314.99" waitingTime="0.00" waitingCount="0" stopTime="0.00" timeLoss="19.74" rerouteNo="0" devices="tripinfo_93" vType="DEFAULT_VEHTYPE" speedFactor="0.94" vaporized=""/>
    <tripinfo id="94" depart="206.00" departLane="E0_0" departPos="5.10" departSpeed="3.37" departDelay="105.00" arrival="313.00" arrivalLane="E3_0" arrivalPos="90.46" arrivalSpeed="30.23" duration="107.00" routeLength="1314.99" waitingTime="0.00" waitingCount="0" stopTime="0.00" timeLoss="26.64" rerouteNo="0" devices="tripinfo_94" vType="DEFAULT_VEHTYPE" speedFactor="1.03" vaporized=""/>
    <tripinfo id="96" depart="212.00" departLane="E0_0" departPos="5.10" departSpeed="5.48" departDelay="110.00" arrival="322.00" arrivalLane="E3_0" arrivalPos="90.46" arrivalSpeed="25.80" duration="110.00" routeLength="1314.99" waitingTime="0.00" waitingCount="0" stopTime="0.00" timeLoss="17.30" rerouteNo="0" devices="tripinfo_96" vType="DEFAULT_VEHTYPE" speedFactor="0.89" vaporized=""/>
    <tripinfo id="100" depart="221.00" departLane="E0_0" departPos="5.10" departSpeed="3.03" departDelay="116.00" arrival="323.00" arrivalLane="E3_0" arrivalPos="90.46" arrivalSpeed="28.70" duration="102.00" routeLength="1314.99" waitingTime="0.00" waitingCount="0" stopTime="0.00" timeLoss="28.00" rerouteNo="0" devices="tripinfo_100" vType="DEFAULT_VEHTYPE" speedFactor="1.10" vaporized=""/>
    <tripinfo id="11" depart="13.00" departLane="E0_0" departPos="5.10" departSpeed="4.57" departDelay="5.00" arrival="332.00" arrivalLane="E3_0" arrivalPos="90.46" arrivalSpeed="23.97" duration="319.00" routeLength="1317.38" waitingTime="202.00" waitingCount="4" stopTime="0.00" timeLoss="242.84" rerouteNo="0" devices="tripinfo_11" vType="DEFAULT_VEHTYPE" speedFactor="1.12" vaporized=""/>
    <tripinfo id="12" depart="15.00" departLane="E0_0" departPos="5.10" departSpeed="4.25" departDelay="7.00" arrival="338.00" arrivalLane="E3_0" arrivalPos="90.46" arrivalSpeed="24.31" duration="323.00" routeLength="1317.38" waitingTime="185.00" waitingCount="4" stopTime="0.00" timeLoss="227.32" rerouteNo="0" devices="tripinfo_12" vType="DEFAULT_VEHTYPE" speedFactor="0.90" vaporized=""/>
    <tripinfo id="102" depart="226.00" departLane="E0_0" departPos="5.10" departSpeed="5.59" departDelay="119.00" arrival="341.00" arrivalLane="E3_0" arrivalPos="90.46" arrivalSpeed="24.54" duration="115.00" routeLength="1314.99" waitingTime="0.00" waitingCount="0" stopTime="0.00" timeLoss="17.08" rerouteNo="0" devices="tripinfo_102" vType="DEFAULT_VEHTYPE" speedFactor="0.84" vaporized=""/>
    <tripinfo id="104" depart="230.00" departLane="E0_0" departPos="5.10" departSpeed="5.32" departDelay="121.00" arrival="343.00" arrivalLane="E3_0" arrivalPos="90.46" arrivalSpeed="27.81" duration="113.00" routeLength="1314.99" waitingTime="0.00" waitingCount="0" stopTime="0.00" timeLoss="33.37" rerouteNo="0" devices="tripinfo_104" vType="DEFAULT_VEHTYPE" speedFactor="1.04" vaporized=""/>
    <tripinfo id="106" depart="234.00" departLane="E0_0" departPos="5.10" departSpeed="5.18" departDelay="124.00" arrival="344.00" arrivalLane="E3_0" arrivalPos="90.46" arrivalSpeed="28.09" duration="110.00" routeLength="1314.99" waitingTime="0.00" waitingCount="0" stopTime="0.00" timeLoss="23.91" rerouteNo="0" devices="tripinfo_106" vType="DEFAULT_VEHTYPE" speedFactor="0.95" vaporized=""/>
    <tripinfo id="110" depart="242.00" departLane="E0_0" departPos="5.10" departSpeed="4.52" departDelay="129.00" arrival="346.00" arrivalLane="E3_0" arrivalPos="90.46" arrivalSpeed="29.83" duration="104.00" routeLength="1314.99" waitingTime="0.00" waitingCount="0" stopTime="0.00" timeLoss="22.49" rerouteNo="0" devices="tripinfo_110" vType="DEFAULT_VEHTYPE" speedFactor="1.01" vaporized=""/>
    <tripinfo id="111" depart="244.00" departLane="E0_0" departPos="5.10" departSpeed="4.24" departDelay="131.00" arrival="347.00" arrivalLane="E3_0" arrivalPos="90.46" arrivalSpeed="28.67" duration="103.00" routeLength="1314.99" waitingTime="0.00" waitingCount="0" stopTime="0.00" timeLoss="30.09" rerouteNo="0" devices="tripinfo_111" vType="DEFAULT_VEHTYPE" speedFactor="1.13" vaporized=""/>
    <tripinfo id="112" depart="246.00" departLane="E0_0" departPos="5.10" departSpeed="2.23" departDelay="131.00" arrival="348.00" arrivalLane="E3_0" arrivalPos="90.46" arrivalSpeed="28.41" duration="102.00" routeLength="1314.99" waitingTime="0.00" waitingCount="0" stopTime="0.00" timeLoss="34.61" rerouteNo="0" devices="tripinfo_112" vType="DEFAULT_VEHTYPE" speedFactor="1.21" vaporized=""/>
    <tripinfo id="113" depart="249.00" departLane="E0_0" departPos="5.10" departSpeed="4.61" departDelay="134.00" arrival="361.00" arrivalLane="E3_0" arrivalPos="90.46" arrivalSpeed="26.40" duration="112.00" routeLength="1314.99" waitingTime="0.00" waitingCount="0" stopTime="0.00" timeLoss="19.54" rerouteNo="0" devices="tripinfo_113" vType="DEFAULT_VEHTYPE" speedFactor="0.89" vaporized=""/>
    <tripinfo id="114" depart="251.00" departLane="E0_0" departPos="5.10" departSpeed="3.00" departDelay="136.00" arrival="363.00" arrivalLane="E3_0" arrivalPos="90.46" arrivalSpeed="28.02" duration="112.00" routeLength="1314.99" waitingTime="0.00" waitingCount="0" stopTime="0.00" timeLoss="26.35" rerouteNo="0" devices="tripinfo_114" vType="DEFAULT_VEHTYPE" speedFactor="0.97" vaporized=""/>
    <tripinfo id="115" depart="254.00" departLane="E0_0" departPos="5.10" departSpeed="5.77" departDelay="136.00" arrival="364.00" arrivalLane="E3_0" arrivalPos="90.46" arrivalSpeed="28.31" duration="110.00" routeLength="1314.99" waitingTime="0.00" waitingCount="0" stopTime="0.00" timeLoss="30.87" rerouteNo="0" devices="tripinfo_115" vType="DEFAULT_VEHTYPE" speedFactor="1.04" vaporized=""/>
    <tripinfo id="120" depart="264.00" departLane="E0_0" departPos="5.10" departSpeed="0.51" departDelay="139.00" arrival="367.00" arrivalLane="E3_0" arrivalPos="90.46" arrivalSpeed="28.96" duration="103.00" routeLength="1314.99" waitingTime="0.00" waitingCount="0" stopTime="0.00" timeLoss="21.49" rerouteNo="0" devices="tripinfo_120" vType="DEFAULT_VEHTYPE" speedFactor="1.01" vaporized=""/>
    <tripinfo id="122" depart="270.00" departLane="E0_0" departPos="5.10" departSpeed="8.39" departDelay="141.00" arrival="374.00" arrivalLane="E3_0" arrivalPos="90.46" arrivalSpeed="29.65" duration="104.00" routeLength="1314.99" waitingTime="0.00" waitingCount="0" stopTime="0.00" timeLoss="20.83" rerouteNo="0" devices="tripinfo_122" vType="DEFAULT_VEHTYPE" speedFactor="1.00" vaporized=""/>
    <tripinfo id="14" depart="19.00" departLane="E0_0" departPos="5.10" departSpeed="3.26" departDelay="8.00" arrival="383.00" arrivalLane="E3_0" arrivalPos="90.46" arrivalSpeed="25.22" duration="364.00" routeLength="1317.38" waitingTime="222.00" waitingCount="5" stopTime="0.00" timeLoss="281.46" rerouteNo="0" devices="tripinfo_14" vType="DEFAULT_VEHTYPE" speedFactor="1.04" vaporized=""/>
    <tripinfo id="20" depart="34.00" departLane="E0_0" departPos="5.10" departSpeed="6.00" departDelay="19.00" arrival="385.00" arrivalLane="E3_0" arrivalPos="90.46" arrivalSpeed="25.14" duration="351.00" routeLength="1317.38" waitingTime="215.00" waitingCount="5" stopTime="0.00" timeLoss="265.94" rerouteNo="0" devices="tripinfo_20" vType="DEFAULT_VEHTYPE" speedFactor="1.01" vaporized=""/>
    <tripinfo id="21" depart="36.00" departLane="E0_0" departPos="5.10" departSpeed="6.50" departDelay="20.00" arrival="388.00" arrivalLane="E3_0" arrivalPos="90.46" arrivalSpeed="25.66" duration="352.00" routeLength="1317.38" waitingTime="202.00" waitingCount="5" stopTime="0.00" timeLoss="253.26" rerouteNo="0" devices="tripinfo_21" vType="DEFAULT_VEHTYPE" speedFactor="0.87" vaporized=""/>