<?xml version="1.0" encoding="UTF-8"?>

<!-- generated on 2023-04-23 17:31:27 by Eclipse SUMO sumo Version 1.16.0
<configuration xmlns:xsi="http://www.w3.org/2001/XMLSchema-instance" xsi:noNamespaceSchemaLocation="http://sumo.dlr.de/xsd/sumoConfiguration.xsd">

    <input>
        <net-file value="C:\Users\Local_Man\Desktop\Stolen%20Music\school%20stuff%20for%20college\Semester%2015%20(UH%20Graduate%20School)\COSC%206364%20Nikolaos\SUMO_Project\COSC6364_Project\configurations\maps\4corners_neighborhoods.net.xml"/>
        <route-files value="./configurations/Rounds/4corners_neighborhoods.net.xml-test-2/Macroscopic_DUE/Macro_Routes.xml"/>
    </input>

    <output>
        <summary-output value="./configurations/Rounds/4corners_neighborhoods.net.xml-test-2/Macroscopic_DUE/summary.xml"/>
        <tripinfo-output value="./configurations/Rounds/4corners_neighborhoods.net.xml-test-2/Macroscopic_DUE/trips.trips.xml"/>
    </output>

    <time>
        <begin value="0"/>
    </time>

    <report>
        <log value="./configurations/Rounds/4corners_neighborhoods.net.xml-test-2/Macroscopic_DUE/log.sumo.log"/>
        <no-step-log value="true"/>
    </report>

    <gui_only>
        <quit-on-end value="true"/>
    </gui_only>

</configuration>
-->

<tripinfos xmlns:xsi="http://www.w3.org/2001/XMLSchema-instance" xsi:noNamespaceSchemaLocation="http://sumo.dlr.de/xsd/tripinfo_file.xsd">
    <tripinfo id="15" depart="10.00" departLane="422688973_0" departPos="5.10" departSpeed="26.01" departDelay="0.00" arrival="48.00" arrivalLane="-318908683#1_0" arrivalPos="71.22" arrivalSpeed="12.17" duration="38.00" routeLength="684.23" waitingTime="0.00" waitingCount="0" stopTime="0.00" timeLoss="7.98" rerouteNo="0" devices="tripinfo_15" vType="DEFAULT_VEHTYPE" speedFactor="0.94" vaporized=""/>
    <tripinfo id="14" depart="10.00" departLane="318908683#0_0" departPos="5.10" departSpeed="14.47" departDelay="0.00" arrival="74.00" arrivalLane="918280984_0" arrivalPos="38.78" arrivalSpeed="14.21" duration="64.00" routeLength="693.58" waitingTime="21.00" waitingCount="1" stopTime="0.00" timeLoss="33.82" rerouteNo="0" devices="tripinfo_14" vType="DEFAULT_VEHTYPE" speedFactor="1.04" vaporized=""/>
    <tripinfo id="35" depart="26.00" departLane="318908683#0_0" departPos="5.10" departSpeed="14.42" departDelay="0.00" arrival="77.00" arrivalLane="918280984_0" arrivalPos="38.78" arrivalSpeed="13.97" duration="51.00" routeLength="693.58" waitingTime="9.00" waitingCount="1" stopTime="0.00" timeLoss="21.44" rerouteNo="0" devices="tripinfo_35" vType="DEFAULT_VEHTYPE" speedFactor="1.04" vaporized=""/>
    <tripinfo id="44" depart="40.00" departLane="318908683#0_0" departPos="5.10" departSpeed="11.15" departDelay="0.00" arrival="80.00" arrivalLane="918280984_0" arrivalPos="38.78" arrivalSpeed="15.09" duration="40.00" routeLength="693.58" waitingTime="0.00" waitingCount="0" stopTime="0.00" timeLoss="11.37" rerouteNo="0" devices="tripinfo_44" vType="DEFAULT_VEHTYPE" speedFactor="1.10" vaporized=""/>
    <tripinfo id="23" depart="16.00" departLane="-260998164#3_0" departPos="5.10" departSpeed="26.52" departDelay="0.00" arrival="92.00" arrivalLane="-597602756#0_0" arrivalPos="325.99" arrivalSpeed="25.06" duration="76.00" routeLength="1231.40" waitingTime="0.00" waitingCount="0" stopTime="0.00" timeLoss="11.91" rerouteNo="0" devices="tripinfo_23" vType="DEFAULT_VEHTYPE" speedFactor="1.13" vaporized=""/>
    <tripinfo id="7" depart="4.00" departLane="422685671#2_0" departPos="5.10" departSpeed="26.05" departDelay="0.00" arrival="95.00" arrivalLane="-597602753#1_0" arrivalPos="143.59" arrivalSpeed="20.64" duration="91.00" routeLength="1584.34" waitingTime="0.00" waitingCount="0" stopTime="0.00" timeLoss="16.70" rerouteNo="0" devices="tripinfo_7" vType="DEFAULT_VEHTYPE" speedFactor="0.94" vaporized=""/>
    <tripinfo id="45" depart="43.00" departLane="318908683#0_0" departPos="5.10" departSpeed="8.15" departDelay="0.00" arrival="95.00" arrivalLane="260998164#0_0" arrivalPos="257.55" arrivalSpeed="23.73" duration="52.00" routeLength="939.98" waitingTime="0.00" waitingCount="0" stopTime="0.00" timeLoss="9.60" rerouteNo="0" devices="tripinfo_45" vType="DEFAULT_VEHTYPE" speedFactor="0.90" vaporized=""/>
    <tripinfo id="26" depart="19.00" departLane="422688973_2" departPos="5.10" departSpeed="0.24" departDelay="0.00" arrival="98.00" arrivalLane="15374898#0-AddedOffRampEdge_0" arrivalPos="100.00" arrivalSpeed="31.47" duration="79.00" routeLength="1006.54" waitingTime="22.00" waitingCount="1" stopTime="0.00" timeLoss="46.26" rerouteNo="0" devices="tripinfo_26" vType="DEFAULT_VEHTYPE" speedFactor="1.15" vaporized=""/>
    <tripinfo id="25" depart="19.00" departLane="597602753#0_0" departPos="5.10" departSpeed="24.93" departDelay="0.00" arrival="104.00" arrivalLane="422688976#1_0" arrivalPos="294.40" arrivalSpeed="30.04" duration="85.00" routeLength="1286.53" waitingTime="0.00" waitingCount="0" stopTime="0.00" timeLoss="14.72" rerouteNo="0" devices="tripinfo_25" vType="DEFAULT_VEHTYPE" speedFactor="1.12" vaporized=""/>
    <tripinfo id="8" depart="4.00" departLane="597602756#0_0" departPos="5.10" departSpeed="22.60" departDelay="0.00" arrival="107.00" arrivalLane="15374898#0-AddedOffRampEdge_1" arrivalPos="100.00" arrivalSpeed="27.24" duration="103.00" routeLength="1760.61" waitingTime="0.00" waitingCount="0" stopTime="0.00" timeLoss="19.22" rerouteNo="0" devices="tripinfo_8" vType="DEFAULT_VEHTYPE" speedFactor="1.02" vaporized=""/>
    <tripinfo id="9" depart="5.00" departLane="597602756#0_0" departPos="5.10" departSpeed="20.59" departDelay="1.00" arrival="108.00" arrivalLane="15374898#0-AddedOffRampEdge_1" arrivalPos="100.00" arrivalSpeed="29.72" duration="103.00" routeLength="1760.61" waitingTime="0.00" waitingCount="0" stopTime="0.00" timeLoss="24.94" rerouteNo="0" devices="tripinfo_9" vType="DEFAULT_VEHTYPE" speedFactor="1.09" vaporized=""/>
    <tripinfo id="24" depart="17.00" departLane="597602756#0_0" departPos="5.10" departSpeed="19.86" departDelay="0.00" arrival="109.00" arrivalLane="260998164#0_0" arrivalPos="257.55" arrivalSpeed="24.69" duration="92.00" routeLength="1239.91" waitingTime="0.00" waitingCount="0" stopTime="0.00" timeLoss="10.26" rerouteNo="0" devices="tripinfo_24" vType="DEFAULT_VEHTYPE" speedFactor="0.89" vaporized=""/>
    <tripinfo id="10" depart="6.00" departLane="597602756#0_0" departPos="5.10" departSpeed="18.65" departDelay="0.00" arrival="111.00" arrivalLane="15374898#0-AddedOffRampEdge_1" arrivalPos="100.00" arrivalSpeed="25.43" duration="105.00" routeLength="1760.61" waitingTime="0.00" waitingCount="0" stopTime="0.00" timeLoss="13.11" rerouteNo="0" devices="tripinfo_10" vType="DEFAULT_VEHTYPE" speedFactor="0.92" vaporized=""/>
    <tripinfo id="4" depart="1.00" departLane="597602753#0_0" departPos="5.10" departSpeed="26.67" departDelay="0.00" arrival="113.00" arrivalLane="15374898#0-AddedOffRampEdge_0" arrivalPos="100.00" arrivalSpeed="28.05" duration="112.00" routeLength="1981.16" waitingTime="3.00" waitingCount="1" stopTime="0.00" timeLoss="31.23" rerouteNo="0" devices="tripinfo_4" vType="DEFAULT_VEHTYPE" speedFactor="1.20" vaporized=""/>
    <tripinfo id="13" depart="10.00" departLane="-260998164#3_0" departPos="5.10" departSpeed="25.75" departDelay="0.00" arrival="113.00" arrivalLane="-318908683#1_0" arrivalPos="71.22" arrivalSpeed="12.05" duration="103.00" routeLength="955.07" waitingTime="55.00" waitingCount="1" stopTime="0.00" timeLoss="61.40" rerouteNo="0" devices="tripinfo_13" vType="DEFAULT_VEHTYPE" speedFactor="0.93" vaporized=""/>
    <tripinfo id="2" depart="0.00" departLane="597602756#0_0" departPos="5.10" departSpeed="24.06" departDelay="0.00" arrival="115.00" arrivalLane="-318908683#1_0" arrivalPos="71.22" arrivalSpeed="14.23" duration="115.00" routeLength="1382.88" waitingTime="27.00" waitingCount="1" stopTime="0.00" timeLoss="44.81" rerouteNo="0" devices="tripinfo_2" vType="DEFAULT_VEHTYPE" speedFactor="1.08" vaporized=""/>
    <tripinfo id="6" depart="2.00" departLane="918280985_0" departPos="5.10" departSpeed="14.97" departDelay="0.00" arrival="116.00" arrivalLane="-597602753#1_0" arrivalPos="143.59" arrivalSpeed="23.11" duration="114.00" routeLength="1123.56" waitingTime="34.00" waitingCount="2" stopTime="0.00" timeLoss="51.96" rerouteNo="0" devices="tripinfo_6" vType="DEFAULT_VEHTYPE" speedFactor="1.08" vaporized=""/>
    <tripinfo id="5" depart="2.00" departLane="597602753#0_0" departPos="5.10" departSpeed="23.24" departDelay="0.00" arrival="117.00" arrivalLane="-318908683#1_0" arrivalPos="71.22" arrivalSpeed="13.75" duration="115.00" routeLength="1603.43" waitingTime="0.00" waitingCount="0" stopTime="0.00" timeLoss="30.69" rerouteNo="0" devices="tripinfo_5" vType="DEFAULT_VEHTYPE" speedFactor="1.05" vaporized=""/>
    <tripinfo id="16" depart="11.00" departLane="597602756#0_0" departPos="5.10" departSpeed="22.45" departDelay="0.00" arrival="123.00" arrivalLane="-597602753#1_0" arrivalPos="143.59" arrivalSpeed="21.88" duration="112.00" routeLength="1638.96" waitingTime="15.00" waitingCount="1" stopTime="0.00" timeLoss="37.74" rerouteNo="0" devices="tripinfo_16" vType="DEFAULT_VEHTYPE" speedFactor="1.01" vaporized=""/>
    <tripinfo id="18" depart="12.00" departLane="318908683#0_0" departPos="5.10" departSpeed="14.29" departDelay="0.00" arrival="125.00" arrivalLane="-597602753#1_0" arrivalPos="143.59" arrivalSpeed="22.34" duration="113.00" routeLength="1208.14" waitingTime="32.00" waitingCount="2" stopTime="0.00" timeLoss="58.02" rerouteNo="0" devices="tripinfo_18" vType="DEFAULT_VEHTYPE" speedFactor="1.03" vaporized=""/>
    <tripinfo id="32" depart="24.00" departLane="422688973_2" departPos="5.10" departSpeed="20.57" departDelay="0.00" arrival="126.00" arrivalLane="-105681660#20_0" arrivalPos="806.12" arrivalSpeed="18.29" duration="102.00" routeLength="1352.23" waitingTime="0.00" waitingCount="0" stopTime="0.00" timeLoss="12.25" rerouteNo="0" devices="tripinfo_32" vType="DEFAULT_VEHTYPE" speedFactor="0.83" vaporized=""/>
    <tripinfo id="33" depart="24.00" departLane="918280985_0" departPos="5.10" departSpeed="14.31" departDelay="0.00" arrival="132.00" arrivalLane="-318908683#1_0" arrivalPos="71.22" arrivalSpeed="13.34" duration="108.00" routeLength="674.50" waitingTime="59.00" waitingCount="2" stopTime="0.00" timeLoss="78.52" rerouteNo="0" devices="tripinfo_33" vType="DEFAULT_VEHTYPE" speedFactor="1.03" vaporized=""/>
    <tripinfo id="49" depart="51.00" departLane="422688973_1" departPos="5.10" departSpeed="16.18" departDelay="0.00" arrival="134.00" arrivalLane="-318908683#1_0" arrivalPos="71.22" arrivalSpeed="14.69" duration="83.00" routeLength="684.23" waitingTime="40.00" waitingCount="1" stopTime="0.00" timeLoss="57.64" rerouteNo="0" devices="tripinfo_49" vType="DEFAULT_VEHTYPE" speedFactor="1.12" vaporized=""/>
    <tripinfo id="51" depart="52.00" departLane="422688973_0" departPos="5.10" departSpeed="14.77" departDelay="0.00" arrival="136.00" arrivalLane="-318908683#1_0" arrivalPos="71.22" arrivalSpeed="12.69" duration="84.00" routeLength="684.23" waitingTime="39.00" waitingCount="1" stopTime="0.00" timeLoss="55.69" rerouteNo="0" devices="tripinfo_51" vType="DEFAULT_VEHTYPE" speedFactor="0.99" vaporized=""/>
    <tripinfo id="3" depart="0.00" departLane="318908683#0_0" departPos="5.10" departSpeed="13.55" departDelay="0.00" arrival="138.00" arrivalLane="422688976#1_0" arrivalPos="294.40" arrivalSpeed="26.20" duration="138.00" routeLength="940.85" waitingTime="82.00" waitingCount="2" stopTime="0.00" timeLoss="100.36" rerouteNo="0" devices="tripinfo_3" vType="DEFAULT_VEHTYPE" speedFactor="0.98" vaporized=""/>
    <tripinfo id="11" depart="7.00" departLane="597602753#0_0" departPos="5.10" departSpeed="24.95" departDelay="0.00" arrival="139.00" arrivalLane="422688976#1_2" arrivalPos="294.40" arrivalSpeed="30.95" duration="132.00" routeLength="1788.22" waitingTime="30.00" waitingCount="1" stopTime="0.00" timeLoss="64.99" rerouteNo="0" devices="tripinfo_11" vType="DEFAULT_VEHTYPE" speedFactor="1.12" vaporized=""/>
    <tripinfo id="41" depart="36.00" departLane="318908683#0_0" departPos="5.10" departSpeed="13.61" departDelay="0.00" arrival="139.00" arrivalLane="422688976#1_1" arrivalPos="294.40" arrivalSpeed="29.42" duration="103.00" routeLength="940.85" waitingTime="47.00" waitingCount="2" stopTime="0.00" timeLoss="67.71" rerouteNo="0" devices="tripinfo_41" vType="DEFAULT_VEHTYPE" speedFactor="1.06" vaporized=""/>
    <tripinfo id="12" depart="8.00" departLane="597602756#0_0" departPos="5.10" departSpeed="20.01" departDelay="0.00" arrival="141.00" arrivalLane="422688976#1_2" arrivalPos="294.40" arrivalSpeed="24.84" duration="133.00" routeLength="1985.14" waitingTime="11.00" waitingCount="1" stopTime="0.00" timeLoss="38.75" rerouteNo="0" devices="tripinfo_12" vType="DEFAULT_VEHTYPE" speedFactor="0.90" vaporized=""/>
    <tripinfo id="21" depart="14.00" departLane="-260998164#3_0" departPos="5.10" departSpeed="24.24" departDelay="0.00" arrival="141.00" arrivalLane="422688976#1_1" arrivalPos="294.40" arrivalSpeed="24.17" duration="127.00" routeLength="1712.42" waitingTime="33.00" waitingCount="2" stopTime="0.00" timeLoss="55.43" rerouteNo="0" devices="tripinfo_21" vType="DEFAULT_VEHTYPE" speedFactor="0.87" vaporized=""/>
    <tripinfo id="60" depart="60.00" departLane="105681660#12_0" departPos="5.10" departSpeed="20.40" departDelay="0.00" arrival="141.00" arrivalLane="-597602753#1_0" arrivalPos="143.59" arrivalSpeed="19.98" duration="81.00" routeLength="1380.56" waitingTime="3.00" waitingCount="1" stopTime="0.00" timeLoss="11.56" rerouteNo="0" devices="tripinfo_60" vType="DEFAULT_VEHTYPE" speedFactor="0.92" vaporized=""/>
    <tripinfo id="30" depart="22.00" departLane="318908683#0_0" departPos="5.10" departSpeed="13.06" departDelay="0.00" arrival="142.00" arrivalLane="-105681660#20_0" arrivalPos="806.12" arrivalSpeed="19.90" duration="120.00" routeLength="1436.85" waitingTime="22.00" waitingCount="2" stopTime="0.00" timeLoss="46.75" rerouteNo="0" devices="tripinfo_30" vType="DEFAULT_VEHTYPE" speedFactor="0.94" vaporized=""/>
    <tripinfo id="63" depart="65.00" departLane="422685671#2_0" departPos="5.10" departSpeed="28.25" departDelay="0.00" arrival="142.00" arrivalLane="260998164#0_0" arrivalPos="257.55" arrivalSpeed="27.61" duration="77.00" routeLength="1329.43" waitingTime="4.00" waitingCount="1" stopTime="0.00" timeLoss="29.25" rerouteNo="0" devices="tripinfo_63" vType="DEFAULT_VEHTYPE" speedFactor="1.02" vaporized=""/>
    <tripinfo id="17" depart="11.00" departLane="-260998164#3_0" departPos="5.10" departSpeed="24.37" departDelay="0.00" arrival="143.00" arrivalLane="-105681660#20_0" arrivalPos="806.12" arrivalSpeed="21.96" duration="132.00" routeLength="2198.46" waitingTime="10.00" waitingCount="2" stopTime="0.00" timeLoss="45.62" rerouteNo="0" devices="tripinfo_17" vType="DEFAULT_VEHTYPE" speedFactor="1.08" vaporized=""/>
    <tripinfo id="31" depart="22.00" departLane="422685671#2_0" departPos="5.10" departSpeed="30.62" departDelay="0.00" arrival="145.00" arrivalLane="422688976#1_1" arrivalPos="294.40" arrivalSpeed="29.37" duration="123.00" routeLength="1317.05" waitingTime="61.00" waitingCount="1" stopTime="0.00" timeLoss="78.24" rerouteNo="0" devices="tripinfo_31" vType="DEFAULT_VEHTYPE" speedFactor="1.10" vaporized=""/>
    <tripinfo id="47" depart="48.00" departLane="597602753#0_0" departPos="5.10" departSpeed="22.74" departDelay="0.00" arrival="145.00" arrivalLane="-105681660#20_0" arrivalPos="806.12" arrivalSpeed="21.50" duration="97.00" routeLength="1387.70" waitingTime="19.00" waitingCount="2" stopTime="0.00" timeLoss="34.37" rerouteNo="0" devices="tripinfo_47" vType="DEFAULT_VEHTYPE" speedFactor="1.02" vaporized=""/>
    <tripinfo id="29" depart="21.00" departLane="422685671#2_0" departPos="5.10" departSpeed="28.33" departDelay="0.00" arrival="148.00" arrivalLane="918280984_0" arrivalPos="38.78" arrivalSpeed="13.90" duration="127.00" routeLength="1069.78" waitingTime="67.00" waitingCount="2" stopTime="0.00" timeLoss="84.58" rerouteNo="0" devices="tripinfo_29" vType="DEFAULT_VEHTYPE" speedFactor="1.02" vaporized=""/>
    <tripinfo id="43" depart="39.00" departLane="422685671#2_1" departPos="5.10" departSpeed="27.87" departDelay="0.00" arrival="150.00" arrivalLane="918280984_0" arrivalPos="38.78" arrivalSpeed="13.49" duration="111.00" routeLength="1069.78" waitingTime="47.00" waitingCount="2" stopTime="0.00" timeLoss="67.91" rerouteNo="0" devices="tripinfo_43" vType="DEFAULT_VEHTYPE" speedFactor="1.00" vaporized=""/>
    <tripinfo id="22" depart="15.00" departLane="422688973_1" departPos="5.10" departSpeed="15.75" departDelay="0.00" arrival="151.00" arrivalLane="-597602756#0_0" arrivalPos="325.99" arrivalSpeed="22.31" duration="136.00" routeLength="1900.12" waitingTime="28.00" waitingCount="1" stopTime="0.00" timeLoss="55.29" rerouteNo="0" devices="tripinfo_22" vType="DEFAULT_VEHTYPE" speedFactor="1.03" vaporized=""/>
    <tripinfo id="40" depart="36.00" departLane="597602756#0_0" departPos="5.10" departSpeed="25.97" departDelay="0.00" arrival="153.00" arrivalLane="-597602753#1_0" arrivalPos="143.59" arrivalSpeed="25.16" duration="117.00" routeLength="1638.96" waitingTime="19.00" waitingCount="1" stopTime="0.00" timeLoss="52.71" rerouteNo="0" devices="tripinfo_40" vType="DEFAULT_VEHTYPE" speedFactor="1.17" vaporized=""/>
    <tripinfo id="20" depart="13.00" departLane="105681660#12_0" departPos="5.10" departSpeed="19.77" departDelay="0.00" arrival="156.00" arrivalLane="15374898#0-AddedOffRampEdge_0" arrivalPos="100.00" arrivalSpeed="23.52" duration="143.00" routeLength="2308.55" waitingTime="0.00" waitingCount="0" stopTime="0.00" timeLoss="16.03" rerouteNo="0" devices="tripinfo_20" vType="DEFAULT_VEHTYPE" speedFactor="0.89" vaporized=""/>
    <tripinfo id="27" depart="21.00" departLane="-260998164#3_0" departPos="5.10" departSpeed="27.64" departDelay="0.00" arrival="160.00" arrivalLane="-597602753#1_0" arrivalPos="143.59" arrivalSpeed="21.07" duration="139.00" routeLength="1979.71" waitingTime="28.00" waitingCount="2" stopTime="0.00" timeLoss="55.32" rerouteNo="0" devices="tripinfo_27" vType="DEFAULT_VEHTYPE" speedFactor="0.99" vaporized=""/>
    <tripinfo id="103" depart="106.00" departLane="422688973_1" departPos="5.10" departSpeed="13.62" departDelay="0.00" arrival="160.00" arrivalLane="-318908683#1_0" arrivalPos="71.22" arrivalSpeed="14.07" duration="54.00" routeLength="684.23" waitingTime="10.00" waitingCount="1" stopTime="0.00" timeLoss="27.08" rerouteNo="0" devices="tripinfo_103" vType="DEFAULT_VEHTYPE" speedFactor="1.04" vaporized=""/>
    <tripinfo id="58" depart="57.00" departLane="318908683#0_0" departPos="5.10" departSpeed="12.89" departDelay="0.00" arrival="162.00" arrivalLane="260998164#0_0" arrivalPos="257.55" arrivalSpeed="24.87" duration="105.00" routeLength="939.98" waitingTime="57.00" waitingCount="1" stopTime="0.00" timeLoss="65.08" rerouteNo="0" devices="tripinfo_58" vType="DEFAULT_VEHTYPE" speedFactor="0.93" vaporized=""/>
    <tripinfo id="69" depart="69.00" departLane="422688973_2" departPos="5.10" departSpeed="0.24" departDelay="0.00" arrival="163.00" arrivalLane="-318908683#1_0" arrivalPos="71.22" arrivalSpeed="11.40" duration="94.00" routeLength="684.23" waitingTime="46.00" waitingCount="1" stopTime="0.00" timeLoss="60.68" rerouteNo="0" devices="tripinfo_69" vType="DEFAULT_VEHTYPE" speedFactor="0.83" vaporized=""/>
    <tripinfo id="85" depart="90.00" departLane="318908683#0_0" departPos="5.10" departSpeed="11.11" departDelay="0.00" arrival="167.00" arrivalLane="260998164#0_0" arrivalPos="257.55" arrivalSpeed="27.28" duration="77.00" routeLength="939.98" waitingTime="28.00" waitingCount="1" stopTime="0.00" timeLoss="39.63" rerouteNo="0" devices="tripinfo_85" vType="DEFAULT_VEHTYPE" speedFactor="1.02" vaporized=""/>
    <tripinfo id="70" depart="72.00" departLane="597602753#0_0" departPos="5.10" departSpeed="23.38" departDelay="0.00" arrival="169.00" arrivalLane="918280984_0" arrivalPos="38.78" arrivalSpeed="14.52" duration="97.00" routeLength="1061.00" waitingTime="16.00" waitingCount="1" stopTime="0.00" timeLoss="28.29" rerouteNo="0" devices="tripinfo_70" vType="DEFAULT_VEHTYPE" speedFactor="1.05" vaporized=""/>
    <tripinfo id="50" depart="51.00" departLane="597602756#0_0" departPos="5.10" departSpeed="22.17" departDelay="0.00" arrival="170.00" arrivalLane="-105681660#20_0" arrivalPos="806.12" arrivalSpeed="21.75" duration="119.00" routeLength="1867.67" waitingTime="15.00" waitingCount="1" stopTime="0.00" timeLoss="32.23" rerouteNo="0" devices="tripinfo_50" vType="DEFAULT_VEHTYPE" speedFactor="1.00" vaporized=""/>
    <tripinfo id="67" depart="68.00" departLane="422688973_1" departPos="5.10" departSpeed="15.75" departDelay="0.00" arrival="171.00" arrivalLane="15374898#0-AddedOffRampEdge_0" arrivalPos="100.00" arrivalSpeed="27.73" duration="103.00" routeLength="1006.54" waitingTime="47.00" waitingCount="1" stopTime="0.00" timeLoss="65.63" rerouteNo="0" devices="tripinfo_67" vType="DEFAULT_VEHTYPE" speedFactor="1.01" vaporized=""/>
    <tripinfo id="74" depart="77.00" departLane="597602753#0_0" departPos="5.10" departSpeed="21.36" departDelay="0.00" arrival="171.00" arrivalLane="918280984_0" arrivalPos="38.78" arrivalSpeed="14.34" duration="94.00" routeLength="1061.00" waitingTime="13.00" waitingCount="1" stopTime="0.00" timeLoss="27.87" rerouteNo="0" devices="tripinfo_74" vType="DEFAULT_VEHTYPE" speedFactor="1.10" vaporized=""/>
    <tripinfo id="46" depart="47.00" departLane="918280985_0" departPos="5.10" departSpeed="13.36" departDelay="0.00" arrival="174.00" arrivalLane="-597602753#1_0" arrivalPos="143.59" arrivalSpeed="21.29" duration="127.00" routeLength="1072.66" waitingTime="32.00" waitingCount="1" stopTime="0.00" timeLoss="50.55" rerouteNo="0" devices="tripinfo_46" vType="DEFAULT_VEHTYPE" speedFactor="0.96" vaporized=""/>
    <tripinfo id="109" depart="111.00" departLane="422688973_0" departPos="5.10" departSpeed="11.16" departDelay="0.00" arrival="174.00" arrivalLane="15374898#0-AddedOffRampEdge_0" arrivalPos="100.00" arrivalSpeed="31.32" duration="63.00" routeLength="1006.54" waitingTime="7.00" waitingCount="1" stopTime="0.00" timeLoss="29.82" rerouteNo="0" devices="tripinfo_109" vType="DEFAULT_VEHTYPE" speedFactor="1.13" vaporized=""/>
    <tripinfo id="28" depart="21.00" departLane="105681660#12_0" departPos="5.10" departSpeed="21.52" departDelay="0.00" arrival="175.00" arrivalLane="260998164#0_0" arrivalPos="257.55" arrivalSpeed="25.62" duration="154.00" routeLength="2169.41" waitingTime="17.00" waitingCount="3" stopTime="0.00" timeLoss="44.50" rerouteNo="0" devices="tripinfo_28" vType="DEFAULT_VEHTYPE" speedFactor="0.97" vaporized=""/>
    <tripinfo id="39" depart="35.00" departLane="105681660#12_0" departPos="5.10" departSpeed="19.48" departDelay="0.00" arrival="178.00" arrivalLane="422688976#1_0" arrivalPos="294.40" arrivalSpeed="24.29" duration="143.00" routeLength="1630.66" waitingTime="21.00" waitingCount="1" stopTime="0.00" timeLoss="43.10" rerouteNo="0" devices="tripinfo_39" vType="DEFAULT_VEHTYPE" speedFactor="0.88" vaporized=""/>
    <tripinfo id="92" depart="95.00" departLane="-260998164#3_0" departPos="5.10" departSpeed="27.14" departDelay="1.00" arrival="179.00" arrivalLane="-597602756#0_0" arrivalPos="325.99" arrivalSpeed="21.11" duration="84.00" routeLength="1231.40" waitingTime="0.00" waitingCount="0" stopTime="0.00" timeLoss="10.50" rerouteNo="0" devices="tripinfo_92" vType="DEFAULT_VEHTYPE" speedFactor="0.98" vaporized=""/>
    <tripinfo id="73" depart="76.00" departLane="597602756#0_0" departPos="5.10" departSpeed="20.14" departDelay="0.00" arrival="183.00" arrivalLane="-105681660#20_0" arrivalPos="806.12" arrivalSpeed="19.17" duration="107.00" routeLength="1867.67" waitingTime="0.00" waitingCount="0" stopTime="0.00" timeLoss="12.20" rerouteNo="0" devices="tripinfo_73" vType="DEFAULT_VEHTYPE" speedFactor="0.91" vaporized=""/>
    <tripinfo id="77" depart="79.00" departLane="597602753#0_0" departPos="5.10" departSpeed="21.51" departDelay="0.00" arrival="184.00" arrivalLane="422688976#1_0" arrivalPos="294.40" arrivalSpeed="26.34" duration="105.00" routeLength="1286.53" waitingTime="5.00" waitingCount="1" stopTime="0.00" timeLoss="22.91" rerouteNo="0" devices="tripinfo_77" vType="DEFAULT_VEHTYPE" speedFactor="0.97" vaporized=""/>
    <tripinfo id="80" depart="82.00" departLane="105681660#12_0" departPos="5.10" departSpeed="23.91" departDelay="0.00" arrival="185.00" arrivalLane="422688976#1_0" arrivalPos="294.40" arrivalSpeed="27.87" duration="103.00" routeLength="1630.66" waitingTime="4.00" waitingCount="1" stopTime="0.00" timeLoss="22.20" rerouteNo="0" devices="tripinfo_80" vType="DEFAULT_VEHTYPE" speedFactor="1.08" vaporized=""/>
    <tripinfo id="81" depart="83.00" departLane="422685671#2_0" departPos="5.10" departSpeed="28.74" departDelay="0.00" arrival="186.00" arrivalLane="-105681660#20_0" arrivalPos="806.12" arrivalSpeed="21.88" duration="103.00" routeLength="1813.05" waitingTime="2.00" waitingCount="1" stopTime="0.00" timeLoss="25.03" rerouteNo="0" devices="tripinfo_81" vType="DEFAULT_VEHTYPE" speedFactor="1.03" vaporized=""/>
    <tripinfo id="87" depart="91.00" departLane="105681660#12_0" departPos="5.10" departSpeed="24.36" departDelay="0.00" arrival="186.00" arrivalLane="-597602753#1_0" arrivalPos="143.59" arrivalSpeed="23.50" duration="95.00" routeLength="1380.56" waitingTime="28.00" waitingCount="1" stopTime="0.00" timeLoss="37.20" rerouteNo="0" devices="tripinfo_87" vType="DEFAULT_VEHTYPE" speedFactor="1.10" vaporized=""/>
    <tripinfo id="147" depart="146.00" departLane="318908683#0_0" departPos="5.10" departSpeed="14.84" departDelay="0.00" arrival="186.00" arrivalLane="260998164#0_0" arrivalPos="257.55" arrivalSpeed="29.41" duration="40.00" routeLength="939.98" waitingTime="0.00" waitingCount="0" stopTime="0.00" timeLoss="5.41" rerouteNo="0" devices="tripinfo_147" vType="DEFAULT_VEHTYPE" speedFactor="1.07" vaporized=""/>
    <tripinfo id="110" depart="111.00" departLane="-260998164#3_0" departPos="5.10" departSpeed="30.94" departDelay="0.00" arrival="187.00" arrivalLane="-597602756#0_0" arrivalPos="325.99" arrivalSpeed="24.72" duration="76.00" routeLength="1231.40" waitingTime="0.00" waitingCount="0" stopTime="0.00" timeLoss="10.66" rerouteNo="0" devices="tripinfo_110" vType="DEFAULT_VEHTYPE" speedFactor="1.11" vaporized=""/>
    <tripinfo id="82" depart="83.00" departLane="422685671#2_1" departPos="5.10" departSpeed="27.15" departDelay="0.00" arrival="192.00" arrivalLane="-105681660#20_0" arrivalPos="806.12" arrivalSpeed="21.68" duration="109.00" routeLength="1813.05" waitingTime="2.00" waitingCount="1" stopTime="0.00" timeLoss="27.49" rerouteNo="0" devices="tripinfo_82" vType="DEFAULT_VEHTYPE" speedFactor="0.98" vaporized=""/>
    <tripinfo id="64" depart="65.00" departLane="918280985_0" departPos="5.10" departSpeed="10.49" departDelay="0.00" arrival="194.00" arrivalLane="-597602753#1_0" arrivalPos="143.59" arrivalSpeed="23.25" duration="129.00" routeLength="1123.56" waitingTime="43.00" waitingCount="3" stopTime="0.00" timeLoss="67.30" rerouteNo="0" devices="tripinfo_64" vType="DEFAULT_VEHTYPE" speedFactor="1.08" vaporized=""/>
    <tripinfo id="36" depart="30.00" departLane="422685671#2_0" departPos="5.10" departSpeed="21.41" departDelay="0.00" arrival="196.00" arrivalLane="-597602756#0_0" arrivalPos="325.99" arrivalSpeed="16.94" duration="166.00" routeLength="1760.65" waitingTime="33.00" waitingCount="2" stopTime="0.00" timeLoss="55.92" rerouteNo="0" devices="tripinfo_36" vType="DEFAULT_VEHTYPE" speedFactor="0.77" vaporized=""/>
    <tripinfo id="88" depart="92.00" departLane="422685671#2_0" departPos="5.10" departSpeed="32.70" departDelay="0.00" arrival="201.00" arrivalLane="-597602753#1_0" arrivalPos="143.59" arrivalSpeed="25.37" duration="109.00" routeLength="1584.34" waitingTime="18.00" waitingCount="1" stopTime="0.00" timeLoss="50.05" rerouteNo="0" devices="tripinfo_88" vType="DEFAULT_VEHTYPE" speedFactor="1.18" vaporized=""/>
    <tripinfo id="66" depart="67.00" departLane="105681660#12_0" departPos="5.10" departSpeed="21.68" departDelay="0.00" arrival="203.00" arrivalLane="260998164#0_0" arrivalPos="257.55" arrivalSpeed="26.53" duration="136.00" routeLength="2169.41" waitingTime="0.00" waitingCount="0" stopTime="0.00" timeLoss="26.72" rerouteNo="0" devices="tripinfo_66" vType="DEFAULT_VEHTYPE" speedFactor="0.98" vaporized=""/>
    <tripinfo id="52" depart="53.00" departLane="597602756#0_0" departPos="5.10" departSpeed="21.06" departDelay="0.00" arrival="204.00" arrivalLane="422688976#1_0" arrivalPos="294.40" arrivalSpeed="25.21" duration="151.00" routeLength="1985.14" waitingTime="38.00" waitingCount="1" stopTime="0.00" timeLoss="60.63" rerouteNo="0" devices="tripinfo_52" vType="DEFAULT_VEHTYPE" speedFactor="0.95" vaporized=""/>
    <tripinfo id="122" depart="119.00" departLane="-260998164#3_0" departPos="5.10" departSpeed="27.66" departDelay="0.00" arrival="204.00" arrivalLane="422688976#1_1" arrivalPos="294.40" arrivalSpeed="27.09" duration="85.00" routeLength="1702.46" waitingTime="0.00" waitingCount="0" stopTime="0.00" timeLoss="22.06" rerouteNo="0" devices="tripinfo_122" vType="DEFAULT_VEHTYPE" speedFactor="1.00" vaporized=""/>
    <tripinfo id="57" depart="57.00" departLane="597602753#0_0" departPos="5.10" departSpeed="23.46" departDelay="0.00" arrival="206.00" arrivalLane="422688976#1_1" arrivalPos="294.40" arrivalSpeed="28.67" duration="149.00" routeLength="1788.22" waitingTime="34.00" waitingCount="3" stopTime="0.00" timeLoss="78.32" rerouteNo="0" devices="tripinfo_57" vType="DEFAULT_VEHTYPE" speedFactor="1.06" vaporized=""/>