<?xml version="1.0" encoding="UTF-8"?>

<!-- generated on 2023-04-28 17:43:06 by Eclipse SUMO sumo Version 1.16.0
<configuration xmlns:xsi="http://www.w3.org/2001/XMLSchema-instance" xsi:noNamespaceSchemaLocation="http://sumo.dlr.de/xsd/sumoConfiguration.xsd">

    <input>
        <net-file value="C:\Users\Local_Man\Desktop\Stolen%20Music\school%20stuff%20for%20college\Semester%2015%20(UH%20Graduate%20School)\COSC%206364%20Nikolaos\SUMO_Project\COSC6364_Project\configurations\maps\Random_English.net.xml"/>
        <route-files value="./configurations/Rounds/Random_English.net.xml-test_R-3/Macroscopic_DUE/006/Trips_File_006.rou.xml"/>
    </input>

    <output>
        <summary-output value="./configurations/Rounds/Random_English.net.xml-test_R-3/Macroscopic_DUE/006/summary.xml"/>
        <tripinfo-output value="./configurations/Rounds/Random_English.net.xml-test_R-3/Macroscopic_DUE/006/trips.trips.xml"/>
        <statistic-output value="./configurations/Rounds/Random_English.net.xml-test_R-3/Macroscopic_DUE/006/stats_output.xml"/>
    </output>

    <time>
        <begin value="0"/>
    </time>

    <report>
        <log value="./configurations/Rounds/Random_English.net.xml-test_R-3/Macroscopic_DUE/006/log.sumo.log"/>
        <no-step-log value="true"/>
    </report>

    <gui_only>
        <quit-on-end value="true"/>
    </gui_only>

</configuration>
-->

<tripinfos xmlns:xsi="http://www.w3.org/2001/XMLSchema-instance" xsi:noNamespaceSchemaLocation="http://sumo.dlr.de/xsd/tripinfo_file.xsd">
    <tripinfo id="15" depart="18.00" departLane="9_0" departPos="5.10" departSpeed="13.00" departDelay="0.00" arrival="50.00" arrivalLane="19_0" arrivalPos="168.49" arrivalSpeed="11.80" duration="32.00" routeLength="376.28" waitingTime="0.00" waitingCount="0" stopTime="0.00" timeLoss="2.27" rerouteNo="0" devices="tripinfo_15" vType="DEFAULT_VEHTYPE" speedFactor="0.94" vaporized=""/>
    <tripinfo id="17" depart="19.00" departLane="-2494_0" departPos="5.10" departSpeed="15.04" departDelay="0.00" arrival="67.00" arrivalLane="-2502_2" arrivalPos="216.28" arrivalSpeed="14.51" duration="48.00" routeLength="588.88" waitingTime="0.00" waitingCount="0" stopTime="0.00" timeLoss="7.45" rerouteNo="0" devices="tripinfo_17" vType="DEFAULT_VEHTYPE" speedFactor="1.08" vaporized=""/>
    <tripinfo id="41" depart="48.00" departLane="-3739_0" departPos="5.10" departSpeed="14.77" departDelay="0.00" arrival="103.00" arrivalLane="-1404_0" arrivalPos="121.76" arrivalSpeed="14.16" duration="55.00" routeLength="672.94" waitingTime="0.00" waitingCount="0" stopTime="0.00" timeLoss="7.54" rerouteNo="0" devices="tripinfo_41" vType="DEFAULT_VEHTYPE" speedFactor="1.06" vaporized=""/>
    <tripinfo id="2" depart="0.00" departLane="13_0" departPos="5.10" departSpeed="15.04" departDelay="0.00" arrival="108.00" arrivalLane="-2876_2" arrivalPos="105.25" arrivalSpeed="14.22" duration="108.00" routeLength="1432.89" waitingTime="0.00" waitingCount="0" stopTime="0.00" timeLoss="11.93" rerouteNo="0" devices="tripinfo_2" vType="DEFAULT_VEHTYPE" speedFactor="1.08" vaporized=""/>
    <tripinfo id="4" depart="0.00" departLane="-686_0" departPos="5.10" departSpeed="13.55" departDelay="0.00" arrival="122.00" arrivalLane="-2300_2" arrivalPos="232.80" arrivalSpeed="13.33" duration="122.00" routeLength="1380.25" waitingTime="0.00" waitingCount="0" stopTime="0.00" timeLoss="16.21" rerouteNo="0" devices="tripinfo_4" vType="DEFAULT_VEHTYPE" speedFactor="0.98" vaporized=""/>
    <tripinfo id="5" depart="3.00" departLane="-1005_0" departPos="5.10" departSpeed="14.53" departDelay="0.00" arrival="122.00" arrivalLane="2876_0" arrivalPos="105.25" arrivalSpeed="13.64" duration="119.00" routeLength="1466.29" waitingTime="2.00" waitingCount="1" stopTime="0.00" timeLoss="15.80" rerouteNo="0" devices="tripinfo_5" vType="DEFAULT_VEHTYPE" speedFactor="1.05" vaporized=""/>
    <tripinfo id="26" depart="33.00" departLane="1499_0" departPos="5.10" departSpeed="15.58" departDelay="0.00" arrival="122.00" arrivalLane="3799_1" arrivalPos="136.73" arrivalSpeed="15.04" duration="89.00" routeLength="1170.36" waitingTime="0.00" waitingCount="0" stopTime="0.00" timeLoss="11.52" rerouteNo="0" devices="tripinfo_26" vType="DEFAULT_VEHTYPE" speedFactor="1.12" vaporized=""/>
    <tripinfo id="56" depart="59.00" departLane="-1093_0" departPos="5.10" departSpeed="12.89" departDelay="0.00" arrival="123.00" arrivalLane="-1011_0" arrivalPos="213.39" arrivalSpeed="12.76" duration="64.00" routeLength="665.06" waitingTime="0.00" waitingCount="0" stopTime="0.00" timeLoss="9.51" rerouteNo="0" devices="tripinfo_56" vType="DEFAULT_VEHTYPE" speedFactor="0.93" vaporized=""/>
    <tripinfo id="38" depart="46.00" departLane="1882_0" departPos="5.10" departSpeed="12.51" departDelay="0.00" arrival="127.00" arrivalLane="623_1" arrivalPos="149.71" arrivalSpeed="11.80" duration="81.00" routeLength="899.87" waitingTime="0.00" waitingCount="0" stopTime="0.00" timeLoss="7.39" rerouteNo="0" devices="tripinfo_38" vType="DEFAULT_VEHTYPE" speedFactor="0.90" vaporized=""/>
    <tripinfo id="63" depart="68.00" departLane="-123_0" departPos="5.10" departSpeed="15.03" departDelay="0.00" arrival="127.00" arrivalLane="126_1" arrivalPos="195.96" arrivalSpeed="13.78" duration="59.00" routeLength="724.79" waitingTime="0.00" waitingCount="0" stopTime="0.00" timeLoss="7.88" rerouteNo="0" devices="tripinfo_63" vType="DEFAULT_VEHTYPE" speedFactor="1.08" vaporized=""/>
    <tripinfo id="87" depart="91.00" departLane="3611_0" departPos="5.10" departSpeed="15.23" departDelay="0.00" arrival="128.00" arrivalLane="3603_0" arrivalPos="147.90" arrivalSpeed="15.15" duration="37.00" routeLength="418.80" waitingTime="0.00" waitingCount="0" stopTime="0.00" timeLoss="6.98" rerouteNo="0" devices="tripinfo_87" vType="DEFAULT_VEHTYPE" speedFactor="1.10" vaporized=""/>
    <tripinfo id="24" depart="30.00" departLane="-2149_0" departPos="5.10" departSpeed="15.72" departDelay="0.00" arrival="133.00" arrivalLane="-4501_2" arrivalPos="199.70" arrivalSpeed="14.61" duration="103.00" routeLength="1291.01" waitingTime="0.00" waitingCount="0" stopTime="0.00" timeLoss="16.90" rerouteNo="0" devices="tripinfo_24" vType="DEFAULT_VEHTYPE" speedFactor="1.13" vaporized=""/>
    <tripinfo id="29" depart="37.00" departLane="-3772_0" departPos="5.10" departSpeed="14.16" departDelay="0.00" arrival="134.00" arrivalLane="15_0" arrivalPos="122.29" arrivalSpeed="13.13" duration="97.00" routeLength="1174.06" waitingTime="0.00" waitingCount="0" stopTime="0.00" timeLoss="11.66" rerouteNo="0" devices="tripinfo_29" vType="DEFAULT_VEHTYPE" speedFactor="1.02" vaporized=""/>
    <tripinfo id="20" depart="23.00" departLane="-3825_0" departPos="5.10" departSpeed="12.36" departDelay="0.00" arrival="136.00" arrivalLane="-3885_0" arrivalPos="166.30" arrivalSpeed="11.83" duration="113.00" routeLength="1214.17" waitingTime="0.00" waitingCount="0" stopTime="0.00" timeLoss="13.05" rerouteNo="0" devices="tripinfo_20" vType="DEFAULT_VEHTYPE" speedFactor="0.89" vaporized=""/>
    <tripinfo id="84" depart="87.00" departLane="837_0" departPos="5.10" departSpeed="12.03" departDelay="0.00" arrival="136.00" arrivalLane="642_1" arrivalPos="215.54" arrivalSpeed="11.29" duration="49.00" routeLength="517.23" waitingTime="0.00" waitingCount="0" stopTime="0.00" timeLoss="3.35" rerouteNo="0" devices="tripinfo_84" vType="DEFAULT_VEHTYPE" speedFactor="0.87" vaporized=""/>
    <tripinfo id="8" depart="5.00" departLane="-601_0" departPos="5.10" departSpeed="14.13" departDelay="0.00" arrival="138.00" arrivalLane="1404_0" arrivalPos="121.76" arrivalSpeed="13.60" duration="133.00" routeLength="1627.42" waitingTime="0.00" waitingCount="0" stopTime="0.00" timeLoss="14.36" rerouteNo="0" devices="tripinfo_8" vType="DEFAULT_VEHTYPE" speedFactor="1.02" vaporized=""/>
    <tripinfo id="47" depart="52.00" departLane="1447_0" departPos="5.10" departSpeed="14.22" departDelay="0.00" arrival="138.00" arrivalLane="-1517_2" arrivalPos="144.73" arrivalSpeed="13.48" duration="86.00" routeLength="1012.41" waitingTime="0.00" waitingCount="0" stopTime="0.00" timeLoss="12.28" rerouteNo="0" devices="tripinfo_47" vType="DEFAULT_VEHTYPE" speedFactor="1.02" vaporized=""/>
    <tripinfo id="58" depart="63.00" departLane="-123_0" departPos="5.10" departSpeed="15.52" departDelay="0.00" arrival="140.00" arrivalLane="332_0" arrivalPos="100.82" arrivalSpeed="14.55" duration="77.00" routeLength="1003.04" waitingTime="0.00" waitingCount="0" stopTime="0.00" timeLoss="11.34" rerouteNo="0" devices="tripinfo_58" vType="DEFAULT_VEHTYPE" speedFactor="1.12" vaporized=""/>
    <tripinfo id="73" depart="79.00" departLane="2168_0" departPos="5.10" departSpeed="12.59" departDelay="0.00" arrival="142.00" arrivalLane="-2120_2" arrivalPos="137.93" arrivalSpeed="12.26" duration="63.00" routeLength="696.34" waitingTime="0.00" waitingCount="0" stopTime="0.00" timeLoss="6.30" rerouteNo="0" devices="tripinfo_73" vType="DEFAULT_VEHTYPE" speedFactor="0.91" vaporized=""/>
    <tripinfo id="55" depart="57.00" departLane="-523_0" departPos="5.10" departSpeed="14.20" departDelay="0.00" arrival="143.00" arrivalLane="332_0" arrivalPos="100.82" arrivalSpeed="13.90" duration="86.00" routeLength="1011.33" waitingTime="0.00" waitingCount="0" stopTime="0.00" timeLoss="12.63" rerouteNo="0" devices="tripinfo_55" vType="DEFAULT_VEHTYPE" speedFactor="1.02" vaporized=""/>
    <tripinfo id="62" depart="66.00" departLane="2872_0" departPos="5.10" departSpeed="15.10" departDelay="0.00" arrival="150.00" arrivalLane="2425_0" arrivalPos="198.52" arrivalSpeed="14.18" duration="84.00" routeLength="1136.53" waitingTime="0.00" waitingCount="0" stopTime="0.00" timeLoss="7.17" rerouteNo="0" devices="tripinfo_62" vType="DEFAULT_VEHTYPE" speedFactor="1.09" vaporized=""/>
    <tripinfo id="100" depart="103.00" departLane="2732_0" departPos="5.10" departSpeed="15.32" departDelay="0.00" arrival="150.00" arrivalLane="-1483_0" arrivalPos="103.22" arrivalSpeed="15.01" duration="47.00" routeLength="602.33" waitingTime="0.00" waitingCount="0" stopTime="0.00" timeLoss="6.03" rerouteNo="0" devices="tripinfo_100" vType="DEFAULT_VEHTYPE" speedFactor="1.10" vaporized=""/>
    <tripinfo id="90" depart="96.00" departLane="1483_0" departPos="5.10" departSpeed="13.57" departDelay="0.00" arrival="153.00" arrivalLane="2732_0" arrivalPos="136.94" arrivalSpeed="12.42" duration="57.00" routeLength="637.66" waitingTime="0.00" waitingCount="0" stopTime="0.00" timeLoss="7.49" rerouteNo="0" devices="tripinfo_90" vType="DEFAULT_VEHTYPE" speedFactor="0.98" vaporized=""/>
    <tripinfo id="49" depart="53.00" departLane="-1391_0" departPos="5.10" departSpeed="13.85" departDelay="0.00" arrival="162.00" arrivalLane="-13_0" arrivalPos="107.93" arrivalSpeed="13.62" duration="109.00" routeLength="1348.76" waitingTime="0.00" waitingCount="0" stopTime="0.00" timeLoss="10.46" rerouteNo="0" devices="tripinfo_49" vType="DEFAULT_VEHTYPE" speedFactor="1.00" vaporized=""/>
    <tripinfo id="66" depart="73.00" departLane="-3799_0" departPos="5.10" departSpeed="13.56" departDelay="0.00" arrival="167.00" arrivalLane="-1950_2" arrivalPos="136.99" arrivalSpeed="13.03" duration="94.00" routeLength="1110.59" waitingTime="0.00" waitingCount="0" stopTime="0.00" timeLoss="9.89" rerouteNo="0" devices="tripinfo_66" vType="DEFAULT_VEHTYPE" speedFactor="0.98" vaporized=""/>
    <tripinfo id="13" depart="14.00" departLane="840_0" departPos="5.10" departSpeed="12.87" departDelay="0.00" arrival="172.00" arrivalLane="1941_2" arrivalPos="112.15" arrivalSpeed="12.43" duration="158.00" routeLength="1675.43" waitingTime="0.00" waitingCount="0" stopTime="0.00" timeLoss="22.23" rerouteNo="0" devices="tripinfo_13" vType="DEFAULT_VEHTYPE" speedFactor="0.93" vaporized=""/>
    <tripinfo id="50" depart="54.00" departLane="-1483_0" departPos="5.10" departSpeed="13.86" departDelay="0.00" arrival="172.00" arrivalLane="-1769_1" arrivalPos="145.29" arrivalSpeed="13.65" duration="118.00" routeLength="1387.29" waitingTime="0.00" waitingCount="0" stopTime="0.00" timeLoss="15.15" rerouteNo="0" devices="tripinfo_50" vType="DEFAULT_VEHTYPE" speedFactor="1.00" vaporized=""/>
    <tripinfo id="82" depart="86.00" departLane="3744_0" departPos="5.10" departSpeed="14.79" departDelay="0.00" arrival="173.00" arrivalLane="-4527_2" arrivalPos="165.92" arrivalSpeed="14.25" duration="87.00" routeLength="991.86" waitingTime="0.00" waitingCount="0" stopTime="0.00" timeLoss="17.50" rerouteNo="0" devices="tripinfo_82" vType="DEFAULT_VEHTYPE" speedFactor="1.06" vaporized=""/>
    <tripinfo id="151" depart="153.00" departLane="-621_0" departPos="5.10" departSpeed="12.12" departDelay="0.00" arrival="173.00" arrivalLane="621_1" arrivalPos="86.83" arrivalSpeed="12.09" duration="20.00" routeLength="173.23" waitingTime="0.00" waitingCount="0" stopTime="0.00" timeLoss="4.36" rerouteNo="0" devices="tripinfo_151" vType="DEFAULT_VEHTYPE" speedFactor="0.87" vaporized=""/>
    <tripinfo id="23" depart="30.00" departLane="-3439_0" departPos="5.10" departSpeed="12.42" departDelay="0.00" arrival="174.00" arrivalLane="64_0" arrivalPos="128.88" arrivalSpeed="11.84" duration="144.00" routeLength="1360.01" waitingTime="19.00" waitingCount="1" stopTime="0.00" timeLoss="32.27" rerouteNo="0" devices="tripinfo_23" vType="DEFAULT_VEHTYPE" speedFactor="0.89" vaporized=""/>
    <tripinfo id="83" depart="86.00" departLane="1523_0" departPos="5.10" departSpeed="13.58" departDelay="0.00" arrival="175.00" arrivalLane="623_1" arrivalPos="149.71" arrivalSpeed="12.72" duration="89.00" routeLength="1083.97" waitingTime="0.00" waitingCount="0" stopTime="0.00" timeLoss="7.90" rerouteNo="0" devices="tripinfo_83" vType="DEFAULT_VEHTYPE" speedFactor="0.98" vaporized=""/>
    <tripinfo id="64" depart="68.00" departLane="-1033_0" departPos="5.10" departSpeed="14.12" departDelay="0.00" arrival="179.00" arrivalLane="-1431_0" arrivalPos="116.98" arrivalSpeed="13.04" duration="111.00" routeLength="1327.70" waitingTime="0.00" waitingCount="0" stopTime="0.00" timeLoss="14.41" rerouteNo="0" devices="tripinfo_64" vType="DEFAULT_VEHTYPE" speedFactor="1.02" vaporized=""/>
    <tripinfo id="9" depart="6.00" departLane="2961_0" departPos="5.10" departSpeed="15.15" departDelay="0.00" arrival="180.00" arrivalLane="-348_0" arrivalPos="134.42" arrivalSpeed="13.92" duration="174.00" routeLength="2175.12" waitingTime="0.00" waitingCount="0" stopTime="0.00" timeLoss="25.68" rerouteNo="0" devices="tripinfo_9" vType="DEFAULT_VEHTYPE" speedFactor="1.09" vaporized=""/>
    <tripinfo id="25" depart="31.00" departLane="3772_0" departPos="5.10" departSpeed="16.03" departDelay="0.00" arrival="180.00" arrivalLane="1950_0" arrivalPos="136.99" arrivalSpeed="15.15" duration="149.00" routeLength="2120.65" waitingTime="0.00" waitingCount="0" stopTime="0.00" timeLoss="15.15" rerouteNo="0" devices="tripinfo_25" vType="DEFAULT_VEHTYPE" speedFactor="1.15" vaporized=""/>
    <tripinfo id="89" depart="95.00" departLane="-1942_0" departPos="5.10" departSpeed="16.35" departDelay="0.00" arrival="182.00" arrivalLane="882_1" arrivalPos="170.54" arrivalSpeed="15.53" duration="87.00" routeLength="1198.61" waitingTime="0.00" waitingCount="0" stopTime="0.00" timeLoss="12.73" rerouteNo="0" devices="tripinfo_89" vType="DEFAULT_VEHTYPE" speedFactor="1.18" vaporized=""/>
    <tripinfo id="78" depart="82.00" departLane="64_0" departPos="5.10" departSpeed="13.18" departDelay="0.00" arrival="184.00" arrivalLane="1033_0" arrivalPos="91.86" arrivalSpeed="11.91" duration="102.00" routeLength="1088.46" waitingTime="0.00" waitingCount="0" stopTime="0.00" timeLoss="15.36" rerouteNo="0" devices="tripinfo_78" vType="DEFAULT_VEHTYPE" speedFactor="0.95" vaporized=""/>
    <tripinfo id="105" depart="106.00" departLane="-3799_0" departPos="5.10" departSpeed="14.05" departDelay="0.00" arrival="184.00" arrivalLane="1935_2" arrivalPos="213.48" arrivalSpeed="13.95" duration="78.00" routeLength="927.88" waitingTime="0.00" waitingCount="0" stopTime="0.00" timeLoss="10.08" rerouteNo="0" devices="tripinfo_105" vType="DEFAULT_VEHTYPE" speedFactor="1.01" vaporized=""/>
    <tripinfo id="14" depart="17.00" departLane="1005_0" departPos="5.10" departSpeed="14.47" departDelay="0.00" arrival="185.00" arrivalLane="2447_0" arrivalPos="137.51" arrivalSpeed="14.47" duration="168.00" routeLength="2099.22" waitingTime="0.00" waitingCount="0" stopTime="0.00" timeLoss="20.11" rerouteNo="0" devices="tripinfo_14" vType="DEFAULT_VEHTYPE" speedFactor="1.04" vaporized=""/>
    <tripinfo id="53" depart="55.00" departLane="1464_0" departPos="5.10" departSpeed="13.16" departDelay="0.00" arrival="187.00" arrivalLane="116_1" arrivalPos="132.78" arrivalSpeed="12.68" duration="132.00" routeLength="1488.52" waitingTime="0.00" waitingCount="0" stopTime="0.00" timeLoss="15.40" rerouteNo="0" devices="tripinfo_53" vType="DEFAULT_VEHTYPE" speedFactor="0.95" vaporized=""/>
    <tripinfo id="122" depart="120.00" departLane="-1930_0" departPos="5.10" departSpeed="13.83" departDelay="0.00" arrival="187.00" arrivalLane="-2110_0" arrivalPos="145.46" arrivalSpeed="13.62" duration="67.00" routeLength="756.98" waitingTime="0.00" waitingCount="0" stopTime="0.00" timeLoss="9.84" rerouteNo="0" devices="tripinfo_122" vType="DEFAULT_VEHTYPE" speedFactor="1.00" vaporized=""/>
    <tripinfo id="71" depart="79.00" departLane="1526_0" departPos="5.10" departSpeed="11.96" departDelay="0.00" arrival="188.00" arrivalLane="-2453_2" arrivalPos="116.58" arrivalSpeed="10.68" duration="109.00" routeLength="1139.24" waitingTime="0.00" waitingCount="0" stopTime="0.00" timeLoss="11.63" rerouteNo="0" devices="tripinfo_71" vType="DEFAULT_VEHTYPE" speedFactor="0.86" vaporized=""/>
    <tripinfo id="101" depart="103.00" departLane="-1930_0" departPos="5.10" departSpeed="15.53" departDelay="0.00" arrival="190.00" arrivalLane="-1323_1" arrivalPos="214.96" arrivalSpeed="14.80" duration="87.00" routeLength="1076.72" waitingTime="0.00" waitingCount="0" stopTime="0.00" timeLoss="15.67" rerouteNo="0" devices="tripinfo_101" vType="DEFAULT_VEHTYPE" speedFactor="1.12" vaporized=""/>
    <tripinfo id="37" depart="46.00" departLane="2766_0" departPos="5.10" departSpeed="14.18" departDelay="0.00" arrival="191.00" arrivalLane="-7_1" arrivalPos="182.56" arrivalSpeed="13.46" duration="145.00" routeLength="1725.71" waitingTime="0.00" waitingCount="0" stopTime="0.00" timeLoss="20.26" rerouteNo="0" devices="tripinfo_37" vType="DEFAULT_VEHTYPE" speedFactor="1.02" vaporized=""/>
    <tripinfo id="85" depart="87.00" departLane="2881_0" departPos="5.10" departSpeed="17.33" departDelay="0.00" arrival="194.00" arrivalLane="-1029_1" arrivalPos="141.57" arrivalSpeed="17.25" duration="107.00" routeLength="1405.01" waitingTime="2.00" waitingCount="1" stopTime="0.00" timeLoss="22.66" rerouteNo="0" devices="tripinfo_85" vType="DEFAULT_VEHTYPE" speedFactor="1.25" vaporized=""/>
    <tripinfo id="22" depart="28.00" departLane="-138_0" departPos="5.10" departSpeed="14.33" departDelay="0.00" arrival="195.00" arrivalLane="-2714_0" arrivalPos="210.48" arrivalSpeed="14.30" duration="167.00" routeLength="2056.42" waitingTime="0.00" waitingCount="0" stopTime="0.00" timeLoss="20.83" rerouteNo="0" devices="tripinfo_22" vType="DEFAULT_VEHTYPE" speedFactor="1.03" vaporized=""/>
    <tripinfo id="51" depart="54.00" departLane="-2185_0" departPos="5.10" departSpeed="13.71" departDelay="0.00" arrival="198.00" arrivalLane="-589_2" arrivalPos="210.33" arrivalSpeed="12.55" duration="144.00" routeLength="1705.75" waitingTime="0.00" waitingCount="0" stopTime="0.00" timeLoss="16.69" rerouteNo="0" devices="tripinfo_51" vType="DEFAULT_VEHTYPE" speedFactor="0.99" vaporized=""/>
    <tripinfo id="3" depart="0.00" departLane="2285_0" departPos="5.10" departSpeed="16.67" departDelay="0.00" arrival="201.00" arrivalLane="2425_0" arrivalPos="198.52" arrivalSpeed="5.48" duration="201.00" routeLength="2694.44" waitingTime="0.00" waitingCount="0" stopTime="0.00" timeLoss="36.40" rerouteNo="0" devices="tripinfo_3" vType="DEFAULT_VEHTYPE" speedFactor="1.20" vaporized=""/>
    <tripinfo id="68" depart="75.00" departLane="-3439_0" departPos="5.10" departSpeed="13.99" departDelay="0.00" arrival="202.00" arrivalLane="1532_1" arrivalPos="211.50" arrivalSpeed="12.69" duration="127.00" routeLength="1361.64" waitingTime="5.00" waitingCount="1" stopTime="0.00" timeLoss="25.89" rerouteNo="0" devices="tripinfo_68" vType="DEFAULT_VEHTYPE" speedFactor="1.01" vaporized=""/>
    <tripinfo id="99" depart="103.00" departLane="349_0" departPos="5.10" departSpeed="14.34" departDelay="0.00" arrival="203.00" arrivalLane="325_1" arrivalPos="128.61" arrivalSpeed="13.37" duration="100.00" routeLength="1096.77" waitingTime="6.00" waitingCount="1" stopTime="0.00" timeLoss="21.06" rerouteNo="0" devices="tripinfo_99" vType="DEFAULT_VEHTYPE" speedFactor="1.03" vaporized=""/>
    <tripinfo id="75" depart="80.00" departLane="-1391_0" departPos="5.10" departSpeed="15.24" departDelay="0.00" arrival="204.00" arrivalLane="-728_0" arrivalPos="95.50" arrivalSpeed="15.03" duration="124.00" routeLength="1589.71" waitingTime="0.00" waitingCount="0" stopTime="0.00" timeLoss="16.95" rerouteNo="0" devices="tripinfo_75" vType="DEFAULT_VEHTYPE" speedFactor="1.10" vaporized=""/>
    <tripinfo id="186" depart="180.00" departLane="-2183_0" departPos="5.10" departSpeed="13.51" departDelay="0.00" arrival="204.00" arrivalLane="2171_0" arrivalPos="170.22" arrivalSpeed="12.22" duration="24.00" routeLength="267.79" waitingTime="0.00" waitingCount="0" stopTime="0.00" timeLoss="3.16" rerouteNo="0" devices="tripinfo_186" vType="DEFAULT_VEHTYPE" speedFactor="0.97" vaporized=""/>
    <tripinfo id="7" depart="4.00" departLane="-3437_0" departPos="5.10" departSpeed="14.97" departDelay="0.00" arrival="206.00" arrivalLane="-3122_0" arrivalPos="196.86" arrivalSpeed="14.44" duration="202.00" routeLength="2596.62" waitingTime="0.00" waitingCount="0" stopTime="0.00" timeLoss="26.08" rerouteNo="0" devices="tripinfo_7" vType="DEFAULT_VEHTYPE" speedFactor="1.08" vaporized=""/>
    <tripinfo id="40" depart="48.00" departLane="-4473_0" departPos="5.10" departSpeed="16.24" departDelay="0.00" arrival="207.00" arrivalLane="3734_0" arrivalPos="234.48" arrivalSpeed="15.73" duration="159.00" routeLength="2213.24" waitingTime="0.00" waitingCount="0" stopTime="0.00" timeLoss="19.71" rerouteNo="0" devices="tripinfo_40" vType="DEFAULT_VEHTYPE" speedFactor="1.17" vaporized=""/>
    <tripinfo id="150" depart="152.00" departLane="7_0" departPos="5.10" departSpeed="15.95" departDelay="0.00" arrival="207.00" arrivalLane="-25_0" arrivalPos="189.97" arrivalSpeed="14.70" duration="55.00" routeLength="762.78" waitingTime="0.00" waitingCount="0" stopTime="0.00" timeLoss="6.38" rerouteNo="0" devices="tripinfo_150" vType="DEFAULT_VEHTYPE" speedFactor="1.15" vaporized=""/>
    <tripinfo id="157" depart="156.00" departLane="-1523_0" departPos="5.10" departSpeed="14.19" departDelay="0.00" arrival="208.00" arrivalLane="-1883_2" arrivalPos="79.10" arrivalSpeed="13.50" duration="52.00" routeLength="654.87" waitingTime="0.00" waitingCount="0" stopTime="0.00" timeLoss="5.20" rerouteNo="0" devices="tripinfo_157" vType="DEFAULT_VEHTYPE" speedFactor="1.02" vaporized=""/>
    <tripinfo id="77" depart="82.00" departLane="1033_0" departPos="5.10" departSpeed="13.45" departDelay="0.00" arrival="209.00" arrivalLane="2732_1" arrivalPos="136.94" arrivalSpeed="12.78" duration="127.00" routeLength="1487.80" waitingTime="0.00" waitingCount="0" stopTime="0.00" timeLoss="12.66" rerouteNo="0" devices="tripinfo_77" vType="DEFAULT_VEHTYPE" speedFactor="0.97" vaporized=""/>
    <tripinfo id="72" depart="79.00" departLane="1483_0" departPos="5.10" departSpeed="14.68" departDelay="0.00" arrival="211.00" arrivalLane="-1057_0" arrivalPos="215.42" arrivalSpeed="13.66" duration="132.00" routeLength="1593.59" waitingTime="0.00" waitingCount="0" stopTime="0.00" timeLoss="20.15" rerouteNo="0" devices="tripinfo_72" vType="DEFAULT_VEHTYPE" speedFactor="1.06" vaporized=""/>
    <tripinfo id="19" depart="23.00" departLane="650_0" departPos="5.10" departSpeed="14.01" departDelay="0.00" arrival="213.00" arrivalLane="-1891_0" arrivalPos="195.19" arrivalSpeed="13.14" duration="190.00" routeLength="2232.98" waitingTime="2.00" waitingCount="1" stopTime="0.00" timeLoss="27.90" rerouteNo="0" devices="tripinfo_19" vType="DEFAULT_VEHTYPE" speedFactor="1.01" vaporized=""/>
    <tripinfo id="57" depart="61.00" departLane="-2171_0" departPos="5.10" departSpeed="14.66" departDelay="0.00" arrival="214.00" arrivalLane="2168_0" arrivalPos="206.52" arrivalSpeed="14.16" duration="153.00" routeLength="1925.77" waitingTime="0.00" waitingCount="0" stopTime="0.00" timeLoss="19.69" rerouteNo="0" devices="tripinfo_57" vType="DEFAULT_VEHTYPE" speedFactor="1.06" vaporized=""/>
    <tripinfo id="162" depart="159.00" departLane="344_0" departPos="5.10" departSpeed="16.24" departDelay="0.00" arrival="214.00" arrivalLane="326_0" arrivalPos="111.07" arrivalSpeed="15.16" duration="55.00" routeLength="743.77" waitingTime="0.00" waitingCount="0" stopTime="0.00" timeLoss="8.28" rerouteNo="0" devices="tripinfo_162" vType="DEFAULT_VEHTYPE" speedFactor="1.17" vaporized=""/>
    <tripinfo id="69" depart="76.00" departLane="577_0" departPos="5.10" departSpeed="11.58" departDelay="0.00" arrival="216.00" arrivalLane="-4474_0" arrivalPos="112.42" arrivalSpeed="11.51" duration="140.00" routeLength="1407.59" waitingTime="0.00" waitingCount="0" stopTime="0.00" timeLoss="13.75" rerouteNo="0" devices="tripinfo_69" vType="DEFAULT_VEHTYPE" speedFactor="0.83" vaporized=""/>
    <tripinfo id="48" depart="53.00" departLane="-1526_0" departPos="5.10" departSpeed="15.55" departDelay="0.00" arrival="217.00" arrivalLane="535_0" arrivalPos="160.83" arrivalSpeed="14.67" duration="164.00" routeLength="2252.03" waitingTime="0.00" waitingCount="0" stopTime="0.00" timeLoss="18.14" rerouteNo="0" devices="tripinfo_48" vType="DEFAULT_VEHTYPE" speedFactor="1.12" vaporized=""/>
    <tripinfo id="120" depart="118.00" departLane="-2201_0" departPos="5.10" departSpeed="13.98" departDelay="0.00" arrival="217.00" arrivalLane="2194_0" arrivalPos="151.73" arrivalSpeed="13.81" duration="99.00" routeLength="1203.86" waitingTime="0.00" waitingCount="0" stopTime="0.00" timeLoss="11.76" rerouteNo="0" devices="tripinfo_120" vType="DEFAULT_VEHTYPE" speedFactor="1.01" vaporized=""/>
    <tripinfo id="31" depart="40.00" departLane="2185_0" departPos="5.10" departSpeed="15.31" departDelay="0.00" arrival="218.00" arrivalLane="2300_0" arrivalPos="232.80" arrivalSpeed="14.05" duration="178.00" routeLength="2179.57" waitingTime="0.00" waitingCount="0" stopTime="0.00" timeLoss="33.34" rerouteNo="0" devices="tripinfo_31" vType="DEFAULT_VEHTYPE" speedFactor="1.10" vaporized=""/>
    <tripinfo id="109" depart="112.00" departLane="-3761_0" departPos="5.10" departSpeed="15.47" departDelay="0.00" arrival="219.00" arrivalLane="4257_2" arrivalPos="85.19" arrivalSpeed="14.60" duration="107.00" routeLength="1350.97" waitingTime="0.00" waitingCount="0" stopTime="0.00" timeLoss="17.08" rerouteNo="0" devices="tripinfo_109" vType="DEFAULT_VEHTYPE" speedFactor="1.11" vaporized=""/>
    <tripinfo id="21" depart="24.00" departLane="-1483_0" departPos="5.10" departSpeed="12.12" departDelay="0.00" arrival="220.00" arrivalLane="3800_1" arrivalPos="177.06" arrivalSpeed="11.84" duration="196.00" routeLength="2075.43" waitingTime="0.00" waitingCount="0" stopTime="0.00" timeLoss="20.82" rerouteNo="0" devices="tripinfo_21" vType="DEFAULT_VEHTYPE" speedFactor="0.87" vaporized=""/>
    <tripinfo id="76" depart="80.00" departLane="585_0" departPos="5.10" departSpeed="15.89" departDelay="0.00" arrival="220.00" arrivalLane="-4494_1" arrivalPos="148.48" arrivalSpeed="15.52" duration="140.00" routeLength="1740.69" waitingTime="2.00" waitingCount="1" stopTime="0.00" timeLoss="25.82" rerouteNo="0" devices="tripinfo_76" vType="DEFAULT_VEHTYPE" speedFactor="1.14" vaporized=""/>
    <tripinfo id="126" depart="124.00" departLane="-614_0" departPos="5.10" departSpeed="12.70" departDelay="0.00" arrival="222.00" arrivalLane="333_2" arrivalPos="142.47" arrivalSpeed="11.52" duration="98.00" routeLength="1058.12" waitingTime="0.00" waitingCount="0" stopTime="0.00" timeLoss="11.47" rerouteNo="0" devices="tripinfo_126" vType="DEFAULT_VEHTYPE" speedFactor="0.91" vaporized=""/>
    <tripinfo id="16" depart="19.00" departLane="-379_0" departPos="5.10" departSpeed="14.29" departDelay="0.00" arrival="225.00" arrivalLane="-1771_0" arrivalPos="210.87" arrivalSpeed="13.02" duration="206.00" routeLength="2507.35" waitingTime="1.00" waitingCount="1" stopTime="0.00" timeLoss="28.08" rerouteNo="0" devices="tripinfo_16" vType="DEFAULT_VEHTYPE" speedFactor="1.03" vaporized=""/>
    <tripinfo id="42" depart="49.00" departLane="7_0" departPos="5.10" departSpeed="14.56" departDelay="0.00" arrival="225.00" arrivalLane="-1057_0" arrivalPos="215.42" arrivalSpeed="13.69" duration="176.00" routeLength="2219.26" waitingTime="0.00" waitingCount="0" stopTime="0.00" timeLoss="20.19" rerouteNo="0" devices="tripinfo_42" vType="DEFAULT_VEHTYPE" speedFactor="1.05" vaporized=""/>
    <tripinfo id="43" depart="50.00" departLane="-1431_0" departPos="5.10" departSpeed="13.93" departDelay="0.00" arrival="226.00" arrivalLane="-3883_0" arrivalPos="165.60" arrivalSpeed="13.22" duration="176.00" routeLength="1849.74" waitingTime="6.00" waitingCount="1" stopTime="0.00" timeLoss="38.31" rerouteNo="0" devices="tripinfo_43" vType="DEFAULT_VEHTYPE" speedFactor="1.00" vaporized=""/>
    <tripinfo id="160" depart="158.00" departLane="-1533_0" departPos="5.10" departSpeed="14.62" departDelay="0.00" arrival="227.00" arrivalLane="-1517_0" arrivalPos="144.73" arrivalSpeed="14.50" duration="69.00" routeLength="951.40" waitingTime="0.00" waitingCount="0" stopTime="0.00" timeLoss="3.58" rerouteNo="0" devices="tripinfo_160" vType="DEFAULT_VEHTYPE" speedFactor="1.05" vaporized=""/>