<?xml version="1.0" encoding="UTF-8"?>

<!-- generated on 2023-04-29 16:18:23 by Eclipse SUMO sumo Version 1.16.0
<configuration xmlns:xsi="http://www.w3.org/2001/XMLSchema-instance" xsi:noNamespaceSchemaLocation="http://sumo.dlr.de/xsd/sumoConfiguration.xsd">

    <input>
        <net-file value="C:\Users\Local_Man\Desktop\Stolen%20Music\school%20stuff%20for%20college\Semester%2015%20(UH%20Graduate%20School)\COSC%206364%20Nikolaos\SUMO_Project\COSC6364_Project\configurations\maps\4corners_neighborhoods.net.xml"/>
        <route-files value="./configurations/Rounds/4corners_neighborhoods.net.xml-test-2/Macroscopic_DUE/016/Trips_File_016.rou.xml"/>
    </input>

    <output>
        <summary-output value="./configurations/Rounds/4corners_neighborhoods.net.xml-test-2/Macroscopic_DUE/016/summary.xml"/>
        <tripinfo-output value="./configurations/Rounds/4corners_neighborhoods.net.xml-test-2/Macroscopic_DUE/016/trips.trips.xml"/>
        <statistic-output value="./configurations/Rounds/4corners_neighborhoods.net.xml-test-2/Macroscopic_DUE/016/stats_output.xml"/>
    </output>

    <time>
        <begin value="0"/>
    </time>

    <report>
        <log value="./configurations/Rounds/4corners_neighborhoods.net.xml-test-2/Macroscopic_DUE/016/log.sumo.log"/>
        <no-step-log value="true"/>
    </report>

    <gui_only>
        <quit-on-end value="true"/>
    </gui_only>

</configuration>
-->

<tripinfos xmlns:xsi="http://www.w3.org/2001/XMLSchema-instance" xsi:noNamespaceSchemaLocation="http://sumo.dlr.de/xsd/tripinfo_file.xsd">
    <tripinfo id="14" depart="16.00" departLane="318908683#0_0" departPos="5.10" departSpeed="12.87" departDelay="0.00" arrival="84.00" arrivalLane="422688976#1_1" arrivalPos="294.40" arrivalSpeed="25.05" duration="68.00" routeLength="940.85" waitingTime="20.00" waitingCount="1" stopTime="0.00" timeLoss="28.59" rerouteNo="0" devices="tripinfo_14" vType="DEFAULT_VEHTYPE" speedFactor="0.93" vaporized=""/>
    <tripinfo id="7" depart="9.00" departLane="918280985_0" departPos="5.10" departSpeed="14.13" departDelay="0.00" arrival="87.00" arrivalLane="15374898#0-AddedOffRampEdge_0" arrivalPos="100.00" arrivalSpeed="27.06" duration="78.00" routeLength="996.81" waitingTime="23.00" waitingCount="1" stopTime="0.00" timeLoss="39.09" rerouteNo="0" devices="tripinfo_7" vType="DEFAULT_VEHTYPE" speedFactor="1.02" vaporized=""/>
    <tripinfo id="4" depart="6.00" departLane="597602756#0_0" departPos="5.10" departSpeed="26.67" departDelay="0.00" arrival="97.00" arrivalLane="-105681660#20_0" arrivalPos="806.12" arrivalSpeed="26.35" duration="91.00" routeLength="1867.67" waitingTime="2.00" waitingCount="1" stopTime="0.00" timeLoss="19.53" rerouteNo="0" devices="tripinfo_4" vType="DEFAULT_VEHTYPE" speedFactor="1.20" vaporized=""/>
    <tripinfo id="13" depart="16.00" departLane="422685671#2_0" departPos="5.10" departSpeed="28.95" departDelay="0.00" arrival="106.00" arrivalLane="-597602756#0_0" arrivalPos="325.99" arrivalSpeed="23.01" duration="90.00" routeLength="1778.05" waitingTime="0.00" waitingCount="0" stopTime="0.00" timeLoss="14.75" rerouteNo="0" devices="tripinfo_13" vType="DEFAULT_VEHTYPE" speedFactor="1.04" vaporized=""/>
    <tripinfo id="18" depart="19.00" departLane="422688973_0" departPos="5.10" departSpeed="0.00" departDelay="0.00" arrival="107.00" arrivalLane="-597602753#1_0" arrivalPos="143.59" arrivalSpeed="22.15" duration="88.00" routeLength="1114.81" waitingTime="5.00" waitingCount="1" stopTime="0.00" timeLoss="24.24" rerouteNo="0" devices="tripinfo_18" vType="DEFAULT_VEHTYPE" speedFactor="1.03" vaporized=""/>
    <tripinfo id="5" depart="7.00" departLane="-260998164#3_0" departPos="5.10" departSpeed="29.05" departDelay="0.00" arrival="108.00" arrivalLane="15374898#0-AddedOffRampEdge_0" arrivalPos="100.00" arrivalSpeed="28.82" duration="101.00" routeLength="1332.80" waitingTime="42.00" waitingCount="1" stopTime="0.00" timeLoss="54.71" rerouteNo="0" devices="tripinfo_5" vType="DEFAULT_VEHTYPE" speedFactor="1.05" vaporized=""/>
    <tripinfo id="22" depart="22.00" departLane="422688973_0" departPos="5.10" departSpeed="0.00" departDelay="0.00" arrival="109.00" arrivalLane="-597602753#1_0" arrivalPos="143.59" arrivalSpeed="21.73" duration="87.00" routeLength="1114.81" waitingTime="5.00" waitingCount="1" stopTime="0.00" timeLoss="23.38" rerouteNo="0" devices="tripinfo_22" vType="DEFAULT_VEHTYPE" speedFactor="1.03" vaporized=""/>
    <tripinfo id="34" depart="39.00" departLane="-260998164#3_0" departPos="5.10" departSpeed="29.61" departDelay="0.00" arrival="114.00" arrivalLane="-318908683#1_0" arrivalPos="71.22" arrivalSpeed="13.63" duration="75.00" routeLength="955.07" waitingTime="30.00" waitingCount="1" stopTime="0.00" timeLoss="38.92" rerouteNo="0" devices="tripinfo_34" vType="DEFAULT_VEHTYPE" speedFactor="1.07" vaporized=""/>
    <tripinfo id="57" depart="63.00" departLane="-260998164#3_0" departPos="5.10" departSpeed="29.33" departDelay="0.00" arrival="114.00" arrivalLane="15374898#0-AddedOffRampEdge_1" arrivalPos="100.00" arrivalSpeed="28.87" duration="51.00" routeLength="1332.80" waitingTime="0.00" waitingCount="0" stopTime="0.00" timeLoss="5.03" rerouteNo="0" devices="tripinfo_57" vType="DEFAULT_VEHTYPE" speedFactor="1.06" vaporized=""/>
    <tripinfo id="11" depart="14.00" departLane="318908683#0_0" departPos="5.10" departSpeed="15.60" departDelay="0.00" arrival="115.00" arrivalLane="-597602756#0_0" arrivalPos="325.99" arrivalSpeed="24.85" duration="101.00" routeLength="1401.85" waitingTime="20.00" waitingCount="1" stopTime="0.00" timeLoss="41.64" rerouteNo="0" devices="tripinfo_11" vType="DEFAULT_VEHTYPE" speedFactor="1.12" vaporized=""/>
    <tripinfo id="12" depart="15.00" departLane="918280985_0" departPos="5.10" departSpeed="12.51" departDelay="0.00" arrival="120.00" arrivalLane="-597602753#1_0" arrivalPos="143.59" arrivalSpeed="19.33" duration="105.00" routeLength="1123.56" waitingTime="17.00" waitingCount="1" stopTime="0.00" timeLoss="30.98" rerouteNo="0" devices="tripinfo_12" vType="DEFAULT_VEHTYPE" speedFactor="0.90" vaporized=""/>
    <tripinfo id="76" depart="76.00" departLane="-260998164#3_0" departPos="5.10" departSpeed="30.48" departDelay="0.00" arrival="120.00" arrivalLane="-318908683#1_0" arrivalPos="71.22" arrivalSpeed="14.93" duration="44.00" routeLength="955.07" waitingTime="0.00" waitingCount="0" stopTime="0.00" timeLoss="8.39" rerouteNo="0" devices="tripinfo_76" vType="DEFAULT_VEHTYPE" speedFactor="1.10" vaporized=""/>
    <tripinfo id="3" depart="1.00" departLane="318908683#0_0" departPos="5.10" departSpeed="15.04" departDelay="0.00" arrival="122.00" arrivalLane="-597602753#1_0" arrivalPos="143.59" arrivalSpeed="22.83" duration="121.00" routeLength="1208.14" waitingTime="46.00" waitingCount="2" stopTime="0.00" timeLoss="69.02" rerouteNo="0" devices="tripinfo_3" vType="DEFAULT_VEHTYPE" speedFactor="1.08" vaporized=""/>
    <tripinfo id="6" depart="9.00" departLane="105681660#12_0" departPos="5.10" departSpeed="23.95" departDelay="0.00" arrival="124.00" arrivalLane="-597602756#0_0" arrivalPos="325.99" arrivalSpeed="23.08" duration="115.00" routeLength="1877.95" waitingTime="19.00" waitingCount="1" stopTime="0.00" timeLoss="34.59" rerouteNo="0" devices="tripinfo_6" vType="DEFAULT_VEHTYPE" speedFactor="1.08" vaporized=""/>
    <tripinfo id="83" depart="81.00" departLane="422685671#2_1" departPos="5.10" departSpeed="29.58" departDelay="0.00" arrival="134.00" arrivalLane="260998164#0_0" arrivalPos="257.55" arrivalSpeed="28.44" duration="53.00" routeLength="1329.43" waitingTime="0.00" waitingCount="0" stopTime="0.00" timeLoss="8.00" rerouteNo="0" devices="tripinfo_83" vType="DEFAULT_VEHTYPE" speedFactor="1.06" vaporized=""/>
    <tripinfo id="25" depart="28.00" departLane="105681660#12_0" departPos="5.10" departSpeed="25.65" departDelay="0.00" arrival="135.00" arrivalLane="-597602756#0_0" arrivalPos="325.99" arrivalSpeed="24.88" duration="107.00" routeLength="1877.95" waitingTime="12.00" waitingCount="1" stopTime="0.00" timeLoss="31.80" rerouteNo="0" devices="tripinfo_25" vType="DEFAULT_VEHTYPE" speedFactor="1.15" vaporized=""/>
    <tripinfo id="10" depart="13.00" departLane="422688973_0" departPos="5.10" departSpeed="0.00" departDelay="0.00" arrival="136.00" arrivalLane="-597602753#1_0" arrivalPos="143.59" arrivalSpeed="19.93" duration="123.00" routeLength="1063.91" waitingTime="28.00" waitingCount="1" stopTime="0.00" timeLoss="45.06" rerouteNo="0" devices="tripinfo_10" vType="DEFAULT_VEHTYPE" speedFactor="0.92" vaporized=""/>
    <tripinfo id="23" depart="23.00" departLane="918280985_0" departPos="5.10" departSpeed="13.00" departDelay="0.00" arrival="138.00" arrivalLane="-318908683#1_0" arrivalPos="71.22" arrivalSpeed="15.53" duration="115.00" routeLength="674.50" waitingTime="67.00" waitingCount="2" stopTime="0.00" timeLoss="88.64" rerouteNo="0" devices="tripinfo_23" vType="DEFAULT_VEHTYPE" speedFactor="1.13" vaporized=""/>
    <tripinfo id="15" depart="17.00" departLane="318908683#0_0" departPos="5.10" departSpeed="10.03" departDelay="0.00" arrival="140.00" arrivalLane="-105681660#20_0" arrivalPos="806.12" arrivalSpeed="19.84" duration="123.00" routeLength="1436.85" waitingTime="25.00" waitingCount="2" stopTime="0.00" timeLoss="50.30" rerouteNo="0" devices="tripinfo_15" vType="DEFAULT_VEHTYPE" speedFactor="0.94" vaporized=""/>
    <tripinfo id="29" depart="35.00" departLane="918280985_0" departPos="5.10" departSpeed="10.50" departDelay="0.00" arrival="140.00" arrivalLane="-318908683#1_0" arrivalPos="71.22" arrivalSpeed="14.78" duration="105.00" routeLength="674.50" waitingTime="54.00" waitingCount="1" stopTime="0.00" timeLoss="77.17" rerouteNo="0" devices="tripinfo_29" vType="DEFAULT_VEHTYPE" speedFactor="1.10" vaporized=""/>
    <tripinfo id="17" depart="18.00" departLane="318908683#0_0" departPos="5.10" departSpeed="5.48" departDelay="0.00" arrival="141.00" arrivalLane="-105681660#20_0" arrivalPos="806.12" arrivalSpeed="21.40" duration="123.00" routeLength="1436.85" waitingTime="23.00" waitingCount="2" stopTime="0.00" timeLoss="55.58" rerouteNo="0" devices="tripinfo_17" vType="DEFAULT_VEHTYPE" speedFactor="1.01" vaporized=""/>
    <tripinfo id="31" depart="35.00" departLane="105681660#12_0" departPos="5.10" departSpeed="22.66" departDelay="0.00" arrival="141.00" arrivalLane="-597602756#0_0" arrivalPos="325.99" arrivalSpeed="22.23" duration="106.00" routeLength="1877.95" waitingTime="1.00" waitingCount="1" stopTime="0.00" timeLoss="19.97" rerouteNo="0" devices="tripinfo_31" vType="DEFAULT_VEHTYPE" speedFactor="1.02" vaporized=""/>
    <tripinfo id="40" depart="45.00" departLane="105681660#12_0" departPos="5.10" departSpeed="23.64" departDelay="0.00" arrival="142.00" arrivalLane="-597602756#0_0" arrivalPos="325.99" arrivalSpeed="23.37" duration="97.00" routeLength="1877.95" waitingTime="0.00" waitingCount="0" stopTime="0.00" timeLoss="15.31" rerouteNo="0" devices="tripinfo_40" vType="DEFAULT_VEHTYPE" speedFactor="1.06" vaporized=""/>
    <tripinfo id="37" depart="43.00" departLane="918280985_0" departPos="5.10" departSpeed="4.79" departDelay="0.00" arrival="143.00" arrivalLane="-318908683#1_0" arrivalPos="71.22" arrivalSpeed="11.66" duration="100.00" routeLength="674.50" waitingTime="49.00" waitingCount="1" stopTime="0.00" timeLoss="66.44" rerouteNo="0" devices="tripinfo_37" vType="DEFAULT_VEHTYPE" speedFactor="0.90" vaporized=""/>
    <tripinfo id="28" depart="33.00" departLane="422688973_0" departPos="5.10" departSpeed="15.75" departDelay="0.00" arrival="145.00" arrivalLane="-318908683#1_0" arrivalPos="71.22" arrivalSpeed="12.43" duration="112.00" routeLength="684.23" waitingTime="62.00" waitingCount="2" stopTime="0.00" timeLoss="82.66" rerouteNo="0" devices="tripinfo_28" vType="DEFAULT_VEHTYPE" speedFactor="0.97" vaporized=""/>
    <tripinfo id="44" depart="49.00" departLane="318908683#0_0" departPos="5.10" departSpeed="9.87" departDelay="0.00" arrival="147.00" arrivalLane="-597602756#0_0" arrivalPos="325.99" arrivalSpeed="24.14" duration="98.00" routeLength="1371.20" waitingTime="8.00" waitingCount="2" stopTime="0.00" timeLoss="30.44" rerouteNo="0" devices="tripinfo_44" vType="DEFAULT_VEHTYPE" speedFactor="1.10" vaporized=""/>
    <tripinfo id="63" depart="67.00" departLane="422688973_0" departPos="5.10" departSpeed="30.06" departDelay="0.00" arrival="147.00" arrivalLane="-318908683#1_0" arrivalPos="71.22" arrivalSpeed="14.71" duration="80.00" routeLength="684.23" waitingTime="40.00" waitingCount="1" stopTime="0.00" timeLoss="53.42" rerouteNo="0" devices="tripinfo_63" vType="DEFAULT_VEHTYPE" speedFactor="1.08" vaporized=""/>
    <tripinfo id="80" depart="79.00" departLane="918280985_0" departPos="5.10" departSpeed="12.84" departDelay="0.00" arrival="148.00" arrivalLane="-318908683#1_0" arrivalPos="71.22" arrivalSpeed="14.60" duration="69.00" routeLength="674.50" waitingTime="16.00" waitingCount="2" stopTime="0.00" timeLoss="40.82" rerouteNo="0" devices="tripinfo_80" vType="DEFAULT_VEHTYPE" speedFactor="1.08" vaporized=""/>
    <tripinfo id="9" depart="12.00" departLane="597602756#0_0" departPos="5.10" departSpeed="24.24" departDelay="0.00" arrival="149.00" arrivalLane="422688976#1_0" arrivalPos="294.40" arrivalSpeed="30.17" duration="137.00" routeLength="1985.14" waitingTime="34.00" waitingCount="1" stopTime="0.00" timeLoss="58.67" rerouteNo="0" devices="tripinfo_9" vType="DEFAULT_VEHTYPE" speedFactor="1.09" vaporized=""/>
    <tripinfo id="21" depart="21.00" departLane="318908683#0_0" departPos="5.10" departSpeed="10.70" departDelay="0.00" arrival="149.00" arrivalLane="-105681660#20_0" arrivalPos="806.12" arrivalSpeed="18.67" duration="128.00" routeLength="1436.85" waitingTime="18.00" waitingCount="2" stopTime="0.00" timeLoss="49.47" rerouteNo="0" devices="tripinfo_21" vType="DEFAULT_VEHTYPE" speedFactor="0.87" vaporized=""/>
    <tripinfo id="38" depart="44.00" departLane="597602753#0_0" departPos="5.10" departSpeed="19.48" departDelay="0.00" arrival="151.00" arrivalLane="-105681660#20_0" arrivalPos="806.12" arrivalSpeed="18.72" duration="107.00" routeLength="1387.70" waitingTime="21.00" waitingCount="2" stopTime="0.00" timeLoss="33.73" rerouteNo="0" devices="tripinfo_38" vType="DEFAULT_VEHTYPE" speedFactor="0.88" vaporized=""/>
    <tripinfo id="54" depart="57.00" departLane="-260998164#3_0" departPos="5.10" departSpeed="26.33" departDelay="0.00" arrival="151.00" arrivalLane="422688976#1_1" arrivalPos="294.40" arrivalSpeed="26.22" duration="94.00" routeLength="1712.42" waitingTime="5.00" waitingCount="1" stopTime="0.00" timeLoss="27.25" rerouteNo="0" devices="tripinfo_54" vType="DEFAULT_VEHTYPE" speedFactor="0.95" vaporized=""/>
    <tripinfo id="52" depart="55.00" departLane="-260998164#3_0" departPos="5.10" departSpeed="26.66" departDelay="0.00" arrival="152.00" arrivalLane="422688976#1_1" arrivalPos="294.40" arrivalSpeed="25.53" duration="97.00" routeLength="1712.42" waitingTime="5.00" waitingCount="2" stopTime="0.00" timeLoss="30.79" rerouteNo="0" devices="tripinfo_52" vType="DEFAULT_VEHTYPE" speedFactor="0.96" vaporized=""/>
    <tripinfo id="47" depart="49.00" departLane="422685671#2_1" departPos="5.10" departSpeed="24.97" departDelay="0.00" arrival="154.00" arrivalLane="422688976#1_1" arrivalPos="294.40" arrivalSpeed="24.07" duration="105.00" routeLength="1317.05" waitingTime="35.00" waitingCount="1" stopTime="0.00" timeLoss="49.81" rerouteNo="0" devices="tripinfo_47" vType="DEFAULT_VEHTYPE" speedFactor="0.90" vaporized=""/>
    <tripinfo id="61" depart="66.00" departLane="422688973_0" departPos="5.10" departSpeed="0.00" departDelay="0.00" arrival="154.00" arrivalLane="-597602753#1_0" arrivalPos="143.59" arrivalSpeed="23.59" duration="88.00" routeLength="1114.81" waitingTime="2.00" waitingCount="1" stopTime="0.00" timeLoss="27.99" rerouteNo="0" devices="tripinfo_61" vType="DEFAULT_VEHTYPE" speedFactor="1.09" vaporized=""/>
    <tripinfo id="33" depart="38.00" departLane="422688973_1" departPos="5.10" departSpeed="15.75" departDelay="0.00" arrival="157.00" arrivalLane="-105681660#20_0" arrivalPos="806.12" arrivalSpeed="22.07" duration="119.00" routeLength="1352.23" waitingTime="35.00" waitingCount="1" stopTime="0.00" timeLoss="46.24" rerouteNo="0" devices="tripinfo_33" vType="DEFAULT_VEHTYPE" speedFactor="1.03" vaporized=""/>
    <tripinfo id="121" depart="114.00" departLane="918280985_0" departPos="5.10" departSpeed="3.91" departDelay="1.00" arrival="158.00" arrivalLane="-318908683#1_0" arrivalPos="71.22" arrivalSpeed="11.65" duration="44.00" routeLength="674.50" waitingTime="0.00" waitingCount="0" stopTime="0.00" timeLoss="10.22" rerouteNo="0" devices="tripinfo_121" vType="DEFAULT_VEHTYPE" speedFactor="0.91" vaporized=""/>
    <tripinfo id="49" depart="50.00" departLane="-260998164#3_0" departPos="5.10" departSpeed="27.70" departDelay="0.00" arrival="159.00" arrivalLane="918280984_0" arrivalPos="38.78" arrivalSpeed="13.07" duration="109.00" routeLength="1455.19" waitingTime="40.00" waitingCount="1" stopTime="0.00" timeLoss="52.40" rerouteNo="0" devices="tripinfo_49" vType="DEFAULT_VEHTYPE" speedFactor="1.00" vaporized=""/>
    <tripinfo id="2" depart="0.00" departLane="-260998164#3_0" departPos="5.10" departSpeed="27.09" departDelay="0.00" arrival="161.00" arrivalLane="918280984_0" arrivalPos="38.78" arrivalSpeed="12.40" duration="161.00" routeLength="1465.15" waitingTime="84.00" waitingCount="2" stopTime="0.00" timeLoss="102.45" rerouteNo="0" devices="tripinfo_2" vType="DEFAULT_VEHTYPE" speedFactor="0.98" vaporized=""/>
    <tripinfo id="39" depart="44.00" departLane="422688973_1" departPos="5.10" departSpeed="15.75" departDelay="0.00" arrival="161.00" arrivalLane="-105681660#20_0" arrivalPos="806.12" arrivalSpeed="22.57" duration="117.00" routeLength="1352.23" waitingTime="32.00" waitingCount="1" stopTime="0.00" timeLoss="43.46" rerouteNo="0" devices="tripinfo_39" vType="DEFAULT_VEHTYPE" speedFactor="1.02" vaporized=""/>
    <tripinfo id="35" depart="41.00" departLane="-260998164#3_0" departPos="5.10" departSpeed="28.83" departDelay="0.00" arrival="163.00" arrivalLane="918280984_0" arrivalPos="38.78" arrivalSpeed="14.35" duration="122.00" routeLength="1465.15" waitingTime="45.00" waitingCount="2" stopTime="0.00" timeLoss="66.79" rerouteNo="0" devices="tripinfo_35" vType="DEFAULT_VEHTYPE" speedFactor="1.04" vaporized=""/>
    <tripinfo id="8" depart="9.00" departLane="422688973_0" departPos="5.10" departSpeed="26.05" departDelay="0.00" arrival="164.00" arrivalLane="-597602756#0_0" arrivalPos="325.99" arrivalSpeed="20.48" duration="155.00" routeLength="1901.28" waitingTime="34.00" waitingCount="2" stopTime="0.00" timeLoss="57.53" rerouteNo="0" devices="tripinfo_8" vType="DEFAULT_VEHTYPE" speedFactor="0.94" vaporized=""/>
    <tripinfo id="88" depart="83.00" departLane="422688973_2" departPos="5.10" departSpeed="12.04" departDelay="0.00" arrival="164.00" arrivalLane="-105681660#20_0" arrivalPos="806.12" arrivalSpeed="24.15" duration="81.00" routeLength="1352.23" waitingTime="0.00" waitingCount="0" stopTime="0.00" timeLoss="12.52" rerouteNo="0" devices="tripinfo_88" vType="DEFAULT_VEHTYPE" speedFactor="1.10" vaporized=""/>
    <tripinfo id="30" depart="35.00" departLane="422685671#2_0" departPos="5.10" departSpeed="26.11" departDelay="0.00" arrival="165.00" arrivalLane="918280984_0" arrivalPos="38.78" arrivalSpeed="11.83" duration="130.00" routeLength="1069.78" waitingTime="67.00" waitingCount="2" stopTime="0.00" timeLoss="83.95" rerouteNo="0" devices="tripinfo_30" vType="DEFAULT_VEHTYPE" speedFactor="0.94" vaporized=""/>
    <tripinfo id="99" depart="108.00" departLane="918280985_0" departPos="5.10" departSpeed="0.10" departDelay="11.00" arrival="166.00" arrivalLane="15374898#0-AddedOffRampEdge_0" arrivalPos="100.00" arrivalSpeed="22.00" duration="58.00" routeLength="996.81" waitingTime="1.00" waitingCount="1" stopTime="0.00" timeLoss="11.10" rerouteNo="0" devices="tripinfo_99" vType="DEFAULT_VEHTYPE" speedFactor="0.84" vaporized=""/>
    <tripinfo id="59" depart="64.00" departLane="422685671#2_0" departPos="5.10" departSpeed="31.05" departDelay="0.00" arrival="167.00" arrivalLane="918280984_0" arrivalPos="38.78" arrivalSpeed="14.49" duration="103.00" routeLength="1069.78" waitingTime="40.00" waitingCount="2" stopTime="0.00" timeLoss="63.91" rerouteNo="0" devices="tripinfo_59" vType="DEFAULT_VEHTYPE" speedFactor="1.12" vaporized=""/>
    <tripinfo id="20" depart="21.00" departLane="105681660#12_0" departPos="5.10" departSpeed="22.41" departDelay="0.00" arrival="168.00" arrivalLane="260998164#0_0" arrivalPos="257.55" arrivalSpeed="27.77" duration="147.00" routeLength="2169.41" waitingTime="17.00" waitingCount="2" stopTime="0.00" timeLoss="42.92" rerouteNo="0" devices="tripinfo_20" vType="DEFAULT_VEHTYPE" speedFactor="1.01" vaporized=""/>
    <tripinfo id="77" depart="77.00" departLane="422685671#2_0" departPos="5.10" departSpeed="26.90" departDelay="0.00" arrival="169.00" arrivalLane="918280984_0" arrivalPos="38.78" arrivalSpeed="13.10" duration="92.00" routeLength="1069.78" waitingTime="22.00" waitingCount="2" stopTime="0.00" timeLoss="46.92" rerouteNo="0" devices="tripinfo_77" vType="DEFAULT_VEHTYPE" speedFactor="0.97" vaporized=""/>
    <tripinfo id="19" depart="20.00" departLane="597602756#0_0" departPos="5.10" departSpeed="19.77" departDelay="0.00" arrival="171.00" arrivalLane="-597602753#1_0" arrivalPos="143.59" arrivalSpeed="19.19" duration="151.00" routeLength="1638.96" waitingTime="48.00" waitingCount="2" stopTime="0.00" timeLoss="66.46" rerouteNo="0" devices="tripinfo_19" vType="DEFAULT_VEHTYPE" speedFactor="0.89" vaporized=""/>
    <tripinfo id="32" depart="37.00" departLane="918280985_0" departPos="5.10" departSpeed="6.68" departDelay="0.00" arrival="173.00" arrivalLane="-597602756#0_0" arrivalPos="325.99" arrivalSpeed="18.44" duration="136.00" routeLength="1891.55" waitingTime="0.00" waitingCount="0" stopTime="0.00" timeLoss="23.88" rerouteNo="0" devices="tripinfo_32" vType="DEFAULT_VEHTYPE" speedFactor="0.83" vaporized=""/>
    <tripinfo id="64" depart="67.00" departLane="-260998164#3_0" departPos="5.10" departSpeed="28.25" departDelay="0.00" arrival="173.00" arrivalLane="-597602753#1_0" arrivalPos="143.59" arrivalSpeed="21.32" duration="106.00" routeLength="1969.75" waitingTime="3.00" waitingCount="1" stopTime="0.00" timeLoss="25.41" rerouteNo="0" devices="tripinfo_64" vType="DEFAULT_VEHTYPE" speedFactor="1.02" vaporized=""/>
    <tripinfo id="41" depart="46.00" departLane="422685671#2_0" departPos="5.10" departSpeed="32.47" departDelay="0.00" arrival="174.00" arrivalLane="-597602756#0_0" arrivalPos="325.99" arrivalSpeed="20.14" duration="128.00" routeLength="1760.65" waitingTime="22.00" waitingCount="2" stopTime="0.00" timeLoss="55.43" rerouteNo="0" devices="tripinfo_41" vType="DEFAULT_VEHTYPE" speedFactor="1.17" vaporized=""/>
    <tripinfo id="101" depart="97.00" departLane="597602756#0_0" departPos="5.10" departSpeed="22.94" departDelay="0.00" arrival="177.00" arrivalLane="260998164#0_0" arrivalPos="257.55" arrivalSpeed="28.20" duration="80.00" routeLength="1239.91" waitingTime="0.00" waitingCount="0" stopTime="0.00" timeLoss="9.64" rerouteNo="0" devices="tripinfo_101" vType="DEFAULT_VEHTYPE" speedFactor="1.03" vaporized=""/>
    <tripinfo id="27" depart="30.00" departLane="318908683#0_0" departPos="5.10" departSpeed="11.15" departDelay="0.00" arrival="178.00" arrivalLane="-105681660#20_0" arrivalPos="806.12" arrivalSpeed="20.86" duration="148.00" routeLength="1436.85" waitingTime="41.00" waitingCount="3" stopTime="0.00" timeLoss="80.12" rerouteNo="0" devices="tripinfo_27" vType="DEFAULT_VEHTYPE" speedFactor="0.99" vaporized=""/>
    <tripinfo id="50" depart="53.00" departLane="105681660#12_0" departPos="5.10" departSpeed="20.46" departDelay="1.00" arrival="178.00" arrivalLane="918280984_0" arrivalPos="38.78" arrivalSpeed="12.57" duration="125.00" routeLength="1405.13" waitingTime="26.00" waitingCount="2" stopTime="0.00" timeLoss="43.57" rerouteNo="0" devices="tripinfo_50" vType="DEFAULT_VEHTYPE" speedFactor="0.99" vaporized=""/>
    <tripinfo id="94" depart="91.00" departLane="597602753#0_0" departPos="5.10" departSpeed="22.94" departDelay="0.00" arrival="180.00" arrivalLane="918280984_0" arrivalPos="38.78" arrivalSpeed="13.65" duration="89.00" routeLength="1061.00" waitingTime="6.00" waitingCount="1" stopTime="0.00" timeLoss="19.11" rerouteNo="0" devices="tripinfo_94" vType="DEFAULT_VEHTYPE" speedFactor="1.03" vaporized=""/>
    <tripinfo id="43" depart="48.00" departLane="-260998164#3_0" departPos="5.10" departSpeed="27.87" departDelay="0.00" arrival="183.00" arrivalLane="-105681660#20_0" arrivalPos="806.12" arrivalSpeed="22.06" duration="135.00" routeLength="2208.42" waitingTime="13.00" waitingCount="2" stopTime="0.00" timeLoss="41.78" rerouteNo="0" devices="tripinfo_43" vType="DEFAULT_VEHTYPE" speedFactor="1.00" vaporized=""/>
    <tripinfo id="68" depart="70.00" departLane="918280985_0" departPos="5.10" departSpeed="13.09" departDelay="0.00" arrival="184.00" arrivalLane="-597602753#1_0" arrivalPos="143.59" arrivalSpeed="20.72" duration="114.00" routeLength="1072.66" waitingTime="21.00" waitingCount="1" stopTime="0.00" timeLoss="35.94" rerouteNo="0" devices="tripinfo_68" vType="DEFAULT_VEHTYPE" speedFactor="0.94" vaporized=""/>
    <tripinfo id="81" depart="80.00" departLane="422688973_0" departPos="5.10" departSpeed="11.09" departDelay="0.00" arrival="189.00" arrivalLane="15374898#0-AddedOffRampEdge_0" arrivalPos="100.00" arrivalSpeed="27.52" duration="109.00" routeLength="1006.54" waitingTime="49.00" waitingCount="1" stopTime="0.00" timeLoss="73.00" rerouteNo="0" devices="tripinfo_81" vType="DEFAULT_VEHTYPE" speedFactor="1.03" vaporized=""/>
    <tripinfo id="102" depart="97.00" departLane="105681660#12_0" departPos="5.10" departSpeed="22.29" departDelay="0.00" arrival="189.00" arrivalLane="-597602753#1_0" arrivalPos="143.59" arrivalSpeed="21.62" duration="92.00" routeLength="1380.56" waitingTime="20.00" waitingCount="1" stopTime="0.00" timeLoss="29.02" rerouteNo="0" devices="tripinfo_102" vType="DEFAULT_VEHTYPE" speedFactor="1.00" vaporized=""/>
    <tripinfo id="105" depart="99.00" departLane="105681660#12_0" departPos="5.10" departSpeed="22.48" departDelay="0.00" arrival="191.00" arrivalLane="-597602753#1_0" arrivalPos="143.59" arrivalSpeed="21.50" duration="92.00" routeLength="1380.56" waitingTime="19.00" waitingCount="1" stopTime="0.00" timeLoss="29.59" rerouteNo="0" devices="tripinfo_105" vType="DEFAULT_VEHTYPE" speedFactor="1.01" vaporized=""/>
    <tripinfo id="118" depart="111.00" departLane="597602753#0_0" departPos="5.10" departSpeed="17.39" departDelay="0.00" arrival="192.00" arrivalLane="422688976#1_0" arrivalPos="294.40" arrivalSpeed="32.01" duration="81.00" routeLength="1286.53" waitingTime="0.00" waitingCount="0" stopTime="0.00" timeLoss="13.94" rerouteNo="0" devices="tripinfo_118" vType="DEFAULT_VEHTYPE" speedFactor="1.18" vaporized=""/>
    <tripinfo id="95" depart="96.00" departLane="422688973_2" departPos="5.10" departSpeed="0.24" departDelay="0.00" arrival="193.00" arrivalLane="15374898#0-AddedOffRampEdge_0" arrivalPos="100.00" arrivalSpeed="23.47" duration="97.00" routeLength="1006.54" waitingTime="33.00" waitingCount="1" stopTime="0.00" timeLoss="54.95" rerouteNo="0" devices="tripinfo_95" vType="DEFAULT_VEHTYPE" speedFactor="0.89" vaporized=""/>
    <tripinfo id="51" depart="52.00" departLane="105681660#12_0" departPos="5.10" departSpeed="22.17" departDelay="0.00" arrival="196.00" arrivalLane="260998164#0_0" arrivalPos="257.55" arrivalSpeed="26.61" duration="144.00" routeLength="2169.41" waitingTime="14.00" waitingCount="1" stopTime="0.00" timeLoss="37.33" rerouteNo="0" devices="tripinfo_51" vType="DEFAULT_VEHTYPE" speedFactor="1.00" vaporized=""/>
    <tripinfo id="103" depart="98.00" departLane="422688973_2" departPos="5.10" departSpeed="0.24" departDelay="0.00" arrival="196.00" arrivalLane="15374898#0-AddedOffRampEdge_0" arrivalPos="100.00" arrivalSpeed="28.13" duration="98.00" routeLength="1006.54" waitingTime="35.00" waitingCount="2" stopTime="0.00" timeLoss="61.89" rerouteNo="0" devices="tripinfo_103" vType="DEFAULT_VEHTYPE" speedFactor="1.04" vaporized=""/>
    <tripinfo id="58" depart="64.00" departLane="422688973_0" departPos="5.10" departSpeed="27.03" departDelay="0.00" arrival="197.00" arrivalLane="260998164#0_0" arrivalPos="257.55" arrivalSpeed="28.52" duration="133.00" routeLength="1470.06" waitingTime="68.00" waitingCount="1" stopTime="0.00" timeLoss="80.54" rerouteNo="0" devices="tripinfo_58" vType="DEFAULT_VEHTYPE" speedFactor="1.03" vaporized=""/>
    <tripinfo id="122" depart="114.00" departLane="-260998164#3_0" departPos="5.10" departSpeed="27.66" departDelay="0.00" arrival="198.00" arrivalLane="-597602756#0_0" arrivalPos="325.99" arrivalSpeed="20.83" duration="84.00" routeLength="1231.40" waitingTime="0.00" waitingCount="0" stopTime="0.00" timeLoss="11.41" rerouteNo="0" devices="tripinfo_122" vType="DEFAULT_VEHTYPE" speedFactor="1.00" vaporized=""/>
    <tripinfo id="48" depart="50.00" departLane="105681660#12_0" departPos="5.10" departSpeed="24.87" departDelay="0.00" arrival="200.00" arrivalLane="15374898#0-AddedOffRampEdge_1" arrivalPos="100.00" arrivalSpeed="29.89" duration="150.00" routeLength="2213.07" waitingTime="19.00" waitingCount="1" stopTime="0.00" timeLoss="54.34" rerouteNo="0" devices="tripinfo_48" vType="DEFAULT_VEHTYPE" speedFactor="1.12" vaporized=""/>
    <tripinfo id="24" depart="24.00" departLane="597602756#0_0" departPos="5.10" departSpeed="19.86" departDelay="0.00" arrival="201.00" arrivalLane="15374898#0-AddedOffRampEdge_0" arrivalPos="100.00" arrivalSpeed="23.83" duration="177.00" routeLength="1760.61" waitingTime="60.00" waitingCount="1" stopTime="0.00" timeLoss="81.21" rerouteNo="0" devices="tripinfo_24" vType="DEFAULT_VEHTYPE" speedFactor="0.89" vaporized=""/>