<?xml version="1.0" encoding="UTF-8"?>

<!-- generated on 2023-05-02 15:48:32 by Eclipse SUMO sumo Version 1.16.0
<configuration xmlns:xsi="http://www.w3.org/2001/XMLSchema-instance" xsi:noNamespaceSchemaLocation="http://sumo.dlr.de/xsd/sumoConfiguration.xsd">

    <input>
        <net-file value="C:\Users\Local_Man\Desktop\Stolen%20Music\school%20stuff%20for%20college\Semester%2015%20(UH%20Graduate%20School)\COSC%206364%20Nikolaos\SUMO_Project\COSC6364_Project\configurations\maps\4corners_neighborhoods.net.xml"/>
        <route-files value="./configurations/Rounds/4corners_neighborhoods.net.xml-TA_test-0/Macroscopic_DUE/000/Trips_File_000.rou.xml"/>
    </input>

    <output>
        <summary-output value="./configurations/Rounds/4corners_neighborhoods.net.xml-TA_test-0/Macroscopic_DUE/000/summary.xml"/>
        <tripinfo-output value="./configurations/Rounds/4corners_neighborhoods.net.xml-TA_test-0/Macroscopic_DUE/000/trips.trips.xml"/>
        <statistic-output value="./configurations/Rounds/4corners_neighborhoods.net.xml-TA_test-0/Macroscopic_DUE/000/stats_output.xml"/>
    </output>

    <time>
        <begin value="0"/>
    </time>

    <report>
        <log value="./configurations/Rounds/4corners_neighborhoods.net.xml-TA_test-0/Macroscopic_DUE/000/log.sumo.log"/>
        <no-step-log value="true"/>
    </report>

    <gui_only>
        <quit-on-end value="true"/>
    </gui_only>

</configuration>
-->

<tripinfos xmlns:xsi="http://www.w3.org/2001/XMLSchema-instance" xsi:noNamespaceSchemaLocation="http://sumo.dlr.de/xsd/tripinfo_file.xsd">
    <tripinfo id="12" depart="11.00" departLane="422685671#2_0" departPos="5.10" departSpeed="31.19" departDelay="0.00" arrival="77.00" arrivalLane="918280984_0" arrivalPos="38.78" arrivalSpeed="15.19" duration="66.00" routeLength="1069.78" waitingTime="14.00" waitingCount="1" stopTime="0.00" timeLoss="27.02" rerouteNo="0" devices="tripinfo_12" vType="DEFAULT_VEHTYPE" speedFactor="1.12" vaporized=""/>
    <tripinfo id="13" depart="13.00" departLane="318908683#0_0" departPos="5.10" departSpeed="12.87" departDelay="0.00" arrival="81.00" arrivalLane="260998164#0_0" arrivalPos="257.55" arrivalSpeed="25.20" duration="68.00" routeLength="939.98" waitingTime="18.00" waitingCount="1" stopTime="0.00" timeLoss="27.17" rerouteNo="0" devices="tripinfo_13" vType="DEFAULT_VEHTYPE" speedFactor="0.93" vaporized=""/>
    <tripinfo id="4" depart="1.00" departLane="597602756#0_0" departPos="5.10" departSpeed="23.24" departDelay="0.00" arrival="92.00" arrivalLane="-597602753#1_0" arrivalPos="143.59" arrivalSpeed="22.13" duration="91.00" routeLength="1638.96" waitingTime="2.00" waitingCount="1" stopTime="0.00" timeLoss="19.34" rerouteNo="0" devices="tripinfo_4" vType="DEFAULT_VEHTYPE" speedFactor="1.05" vaporized=""/>
    <tripinfo id="2" depart="0.00" departLane="422685671#2_0" departPos="5.10" departSpeed="27.09" departDelay="0.00" arrival="97.00" arrivalLane="-597602756#0_0" arrivalPos="325.99" arrivalSpeed="20.39" duration="97.00" routeLength="1778.05" waitingTime="0.00" waitingCount="0" stopTime="0.00" timeLoss="15.00" rerouteNo="0" devices="tripinfo_2" vType="DEFAULT_VEHTYPE" speedFactor="0.98" vaporized=""/>
    <tripinfo id="53" depart="52.00" departLane="318908683#0_0" departPos="5.10" departSpeed="11.12" departDelay="1.00" arrival="97.00" arrivalLane="260998164#0_0" arrivalPos="257.55" arrivalSpeed="25.81" duration="45.00" routeLength="939.98" waitingTime="0.00" waitingCount="0" stopTime="0.00" timeLoss="5.79" rerouteNo="0" devices="tripinfo_53" vType="DEFAULT_VEHTYPE" speedFactor="0.96" vaporized=""/>
    <tripinfo id="41" depart="44.00" departLane="422688973_2" departPos="5.10" departSpeed="0.24" departDelay="0.00" arrival="98.00" arrivalLane="15374898#0-AddedOffRampEdge_0" arrivalPos="100.00" arrivalSpeed="27.91" duration="54.00" routeLength="1006.54" waitingTime="0.00" waitingCount="0" stopTime="0.00" timeLoss="18.57" rerouteNo="0" devices="tripinfo_41" vType="DEFAULT_VEHTYPE" speedFactor="1.05" vaporized=""/>
    <tripinfo id="11" depart="11.00" departLane="597602756#0_0" departPos="5.10" departSpeed="20.01" departDelay="0.00" arrival="104.00" arrivalLane="260998164#0_0" arrivalPos="257.55" arrivalSpeed="24.58" duration="93.00" routeLength="1239.91" waitingTime="0.00" waitingCount="0" stopTime="0.00" timeLoss="11.73" rerouteNo="0" devices="tripinfo_11" vType="DEFAULT_VEHTYPE" speedFactor="0.90" vaporized=""/>
    <tripinfo id="5" depart="1.00" departLane="422688973_0" departPos="5.10" departSpeed="33.35" departDelay="0.00" arrival="105.00" arrivalLane="260998164#0_0" arrivalPos="257.55" arrivalSpeed="27.42" duration="104.00" routeLength="1470.06" waitingTime="42.00" waitingCount="1" stopTime="0.00" timeLoss="58.98" rerouteNo="0" devices="tripinfo_5" vType="DEFAULT_VEHTYPE" speedFactor="1.20" vaporized=""/>
    <tripinfo id="23" depart="27.00" departLane="422688973_1" departPos="5.10" departSpeed="15.75" departDelay="0.00" arrival="105.00" arrivalLane="-597602753#1_0" arrivalPos="143.59" arrivalSpeed="25.10" duration="78.00" routeLength="1114.81" waitingTime="7.00" waitingCount="1" stopTime="0.00" timeLoss="20.19" rerouteNo="0" devices="tripinfo_23" vType="DEFAULT_VEHTYPE" speedFactor="1.13" vaporized=""/>
    <tripinfo id="3" depart="0.00" departLane="918280985_0" departPos="5.10" departSpeed="15.04" departDelay="0.00" arrival="107.00" arrivalLane="260998164#0_0" arrivalPos="257.55" arrivalSpeed="29.44" duration="107.00" routeLength="1460.33" waitingTime="32.00" waitingCount="1" stopTime="0.00" timeLoss="54.11" rerouteNo="0" devices="tripinfo_3" vType="DEFAULT_VEHTYPE" speedFactor="1.08" vaporized=""/>
    <tripinfo id="20" depart="26.00" departLane="-260998164#3_0" departPos="5.10" departSpeed="28.01" departDelay="0.00" arrival="109.00" arrivalLane="-597602756#0_0" arrivalPos="325.99" arrivalSpeed="21.35" duration="83.00" routeLength="1231.40" waitingTime="0.00" waitingCount="0" stopTime="0.00" timeLoss="11.05" rerouteNo="0" devices="tripinfo_20" vType="DEFAULT_VEHTYPE" speedFactor="1.01" vaporized=""/>
    <tripinfo id="35" depart="39.00" departLane="422688973_1" departPos="5.10" departSpeed="15.75" departDelay="0.00" arrival="110.00" arrivalLane="260998164#0_0" arrivalPos="257.55" arrivalSpeed="28.61" duration="71.00" routeLength="1470.06" waitingTime="6.00" waitingCount="1" stopTime="0.00" timeLoss="19.70" rerouteNo="0" devices="tripinfo_35" vType="DEFAULT_VEHTYPE" speedFactor="1.07" vaporized=""/>
    <tripinfo id="6" depart="3.00" departLane="318908683#0_0" departPos="5.10" departSpeed="14.97" departDelay="0.00" arrival="111.00" arrivalLane="-597602756#0_0" arrivalPos="325.99" arrivalSpeed="23.64" duration="108.00" routeLength="1401.85" waitingTime="28.00" waitingCount="1" stopTime="0.00" timeLoss="46.44" rerouteNo="0" devices="tripinfo_6" vType="DEFAULT_VEHTYPE" speedFactor="1.08" vaporized=""/>
    <tripinfo id="9" depart="9.00" departLane="597602753#0_0" departPos="5.10" departSpeed="24.24" departDelay="0.00" arrival="114.00" arrivalLane="15374898#0-AddedOffRampEdge_1" arrivalPos="100.00" arrivalSpeed="29.77" duration="105.00" routeLength="1981.16" waitingTime="0.00" waitingCount="0" stopTime="0.00" timeLoss="16.12" rerouteNo="0" devices="tripinfo_9" vType="DEFAULT_VEHTYPE" speedFactor="1.09" vaporized=""/>
    <tripinfo id="55" depart="54.00" departLane="-260998164#3_0" departPos="5.10" departSpeed="28.39" departDelay="0.00" arrival="114.00" arrivalLane="-318908683#1_0" arrivalPos="71.22" arrivalSpeed="13.52" duration="60.00" routeLength="955.07" waitingTime="13.00" waitingCount="1" stopTime="0.00" timeLoss="21.96" rerouteNo="0" devices="tripinfo_55" vType="DEFAULT_VEHTYPE" speedFactor="1.02" vaporized=""/>
    <tripinfo id="43" depart="46.00" departLane="422688973_2" departPos="5.10" departSpeed="15.75" departDelay="0.00" arrival="115.00" arrivalLane="260998164#0_0" arrivalPos="257.55" arrivalSpeed="29.71" duration="69.00" routeLength="1470.06" waitingTime="3.00" waitingCount="2" stopTime="0.00" timeLoss="19.69" rerouteNo="0" devices="tripinfo_43" vType="DEFAULT_VEHTYPE" speedFactor="1.10" vaporized=""/>
    <tripinfo id="14" depart="18.00" departLane="422685671#2_0" departPos="5.10" departSpeed="28.95" departDelay="0.00" arrival="123.00" arrivalLane="260998164#0_0" arrivalPos="257.55" arrivalSpeed="27.77" duration="105.00" routeLength="1329.43" waitingTime="46.00" waitingCount="1" stopTime="0.00" timeLoss="58.19" rerouteNo="0" devices="tripinfo_14" vType="DEFAULT_VEHTYPE" speedFactor="1.04" vaporized=""/>
    <tripinfo id="25" depart="30.00" departLane="422685671#2_1" departPos="5.10" departSpeed="32.07" departDelay="0.00" arrival="124.00" arrivalLane="260998164#0_0" arrivalPos="257.55" arrivalSpeed="31.10" duration="94.00" routeLength="1329.43" waitingTime="34.00" waitingCount="1" stopTime="0.00" timeLoss="52.05" rerouteNo="0" devices="tripinfo_25" vType="DEFAULT_VEHTYPE" speedFactor="1.15" vaporized=""/>
    <tripinfo id="33" depart="39.00" departLane="597602756#0_0" departPos="5.10" departSpeed="23.06" departDelay="0.00" arrival="124.00" arrivalLane="-318908683#1_0" arrivalPos="71.22" arrivalSpeed="13.14" duration="85.00" routeLength="1382.88" waitingTime="0.00" waitingCount="0" stopTime="0.00" timeLoss="12.25" rerouteNo="0" devices="tripinfo_33" vType="DEFAULT_VEHTYPE" speedFactor="1.04" vaporized=""/>
    <tripinfo id="26" depart="31.00" departLane="318908683#0_0" departPos="5.10" departSpeed="8.79" departDelay="0.00" arrival="125.00" arrivalLane="-597602753#1_0" arrivalPos="143.59" arrivalSpeed="21.66" duration="94.00" routeLength="1208.14" waitingTime="9.00" waitingCount="2" stopTime="0.00" timeLoss="36.88" rerouteNo="0" devices="tripinfo_26" vType="DEFAULT_VEHTYPE" speedFactor="0.99" vaporized=""/>
    <tripinfo id="84" depart="88.00" departLane="-260998164#3_0" departPos="5.10" departSpeed="34.67" departDelay="0.00" arrival="126.00" arrivalLane="-318908683#1_0" arrivalPos="71.22" arrivalSpeed="16.33" duration="38.00" routeLength="955.07" waitingTime="0.00" waitingCount="0" stopTime="0.00" timeLoss="6.72" rerouteNo="0" devices="tripinfo_84" vType="DEFAULT_VEHTYPE" speedFactor="1.25" vaporized=""/>
    <tripinfo id="31" depart="36.00" departLane="318908683#0_0" departPos="5.10" departSpeed="13.06" departDelay="0.00" arrival="127.00" arrivalLane="-597602756#0_0" arrivalPos="325.99" arrivalSpeed="19.93" duration="91.00" routeLength="1401.85" waitingTime="0.00" waitingCount="0" stopTime="0.00" timeLoss="21.31" rerouteNo="0" devices="tripinfo_31" vType="DEFAULT_VEHTYPE" speedFactor="0.94" vaporized=""/>
    <tripinfo id="65" depart="67.00" departLane="422685671#2_0" departPos="5.10" departSpeed="30.06" departDelay="0.00" arrival="127.00" arrivalLane="260998164#0_0" arrivalPos="257.55" arrivalSpeed="29.81" duration="60.00" routeLength="1329.43" waitingTime="0.00" waitingCount="0" stopTime="0.00" timeLoss="14.88" rerouteNo="0" devices="tripinfo_65" vType="DEFAULT_VEHTYPE" speedFactor="1.08" vaporized=""/>
    <tripinfo id="39" depart="43.00" departLane="318908683#0_0" departPos="5.10" departSpeed="11.24" departDelay="0.00" arrival="131.00" arrivalLane="-597602753#1_0" arrivalPos="143.59" arrivalSpeed="18.59" duration="88.00" routeLength="1208.14" waitingTime="0.00" waitingCount="0" stopTime="0.00" timeLoss="24.54" rerouteNo="0" devices="tripinfo_39" vType="DEFAULT_VEHTYPE" speedFactor="0.88" vaporized=""/>
    <tripinfo id="48" depart="49.00" departLane="-260998164#3_0" departPos="5.10" departSpeed="28.44" departDelay="0.00" arrival="132.00" arrivalLane="422688976#1_2" arrivalPos="294.40" arrivalSpeed="27.61" duration="83.00" routeLength="1712.42" waitingTime="4.00" waitingCount="1" stopTime="0.00" timeLoss="21.38" rerouteNo="0" devices="tripinfo_48" vType="DEFAULT_VEHTYPE" speedFactor="1.02" vaporized=""/>
    <tripinfo id="16" depart="21.00" departLane="422688973_0" departPos="5.10" departSpeed="15.75" departDelay="0.00" arrival="135.00" arrivalLane="-318908683#1_0" arrivalPos="71.22" arrivalSpeed="14.51" duration="114.00" routeLength="684.23" waitingTime="66.00" waitingCount="2" stopTime="0.00" timeLoss="88.03" rerouteNo="0" devices="tripinfo_16" vType="DEFAULT_VEHTYPE" speedFactor="1.08" vaporized=""/>
    <tripinfo id="22" depart="27.00" departLane="-260998164#3_0" departPos="5.10" departSpeed="26.59" departDelay="0.00" arrival="135.00" arrivalLane="422688976#1_1" arrivalPos="294.40" arrivalSpeed="27.40" duration="108.00" routeLength="1712.42" waitingTime="19.00" waitingCount="2" stopTime="0.00" timeLoss="46.70" rerouteNo="0" devices="tripinfo_22" vType="DEFAULT_VEHTYPE" speedFactor="1.03" vaporized=""/>
    <tripinfo id="15" depart="20.00" departLane="-260998164#3_0" departPos="5.10" departSpeed="26.01" departDelay="0.00" arrival="136.00" arrivalLane="422688976#1_0" arrivalPos="294.40" arrivalSpeed="24.98" duration="116.00" routeLength="1712.42" waitingTime="27.00" waitingCount="2" stopTime="0.00" timeLoss="48.89" rerouteNo="0" devices="tripinfo_15" vType="DEFAULT_VEHTYPE" speedFactor="0.94" vaporized=""/>
    <tripinfo id="50" depart="51.00" departLane="318908683#0_0" departPos="5.10" departSpeed="13.71" departDelay="0.00" arrival="136.00" arrivalLane="-597602756#0_0" arrivalPos="325.99" arrivalSpeed="20.91" duration="85.00" routeLength="1401.85" waitingTime="0.00" waitingCount="0" stopTime="0.00" timeLoss="17.95" rerouteNo="0" devices="tripinfo_50" vType="DEFAULT_VEHTYPE" speedFactor="0.99" vaporized=""/>
    <tripinfo id="38" depart="42.00" departLane="422688973_2" departPos="5.10" departSpeed="0.24" departDelay="0.00" arrival="137.00" arrivalLane="-318908683#1_0" arrivalPos="71.22" arrivalSpeed="12.98" duration="95.00" routeLength="684.23" waitingTime="45.00" waitingCount="2" stopTime="0.00" timeLoss="67.57" rerouteNo="0" devices="tripinfo_38" vType="DEFAULT_VEHTYPE" speedFactor="1.02" vaporized=""/>
    <tripinfo id="24" depart="30.00" departLane="318908683#0_0" departPos="5.10" departSpeed="12.42" departDelay="0.00" arrival="138.00" arrivalLane="-105681660#20_0" arrivalPos="806.12" arrivalSpeed="19.52" duration="108.00" routeLength="1436.85" waitingTime="9.00" waitingCount="2" stopTime="0.00" timeLoss="31.37" rerouteNo="0" devices="tripinfo_24" vType="DEFAULT_VEHTYPE" speedFactor="0.89" vaporized=""/>
    <tripinfo id="34" depart="39.00" departLane="318908683#0_0" departPos="5.10" departSpeed="13.01" departDelay="0.00" arrival="139.00" arrivalLane="-105681660#20_0" arrivalPos="806.12" arrivalSpeed="22.08" duration="100.00" routeLength="1436.85" waitingTime="0.00" waitingCount="0" stopTime="0.00" timeLoss="33.35" rerouteNo="0" devices="tripinfo_34" vType="DEFAULT_VEHTYPE" speedFactor="1.03" vaporized=""/>
    <tripinfo id="67" depart="70.00" departLane="918280985_0" departPos="5.10" departSpeed="10.50" departDelay="0.00" arrival="139.00" arrivalLane="-318908683#1_0" arrivalPos="71.22" arrivalSpeed="12.98" duration="69.00" routeLength="674.50" waitingTime="18.00" waitingCount="2" stopTime="0.00" timeLoss="38.94" rerouteNo="0" devices="tripinfo_67" vType="DEFAULT_VEHTYPE" speedFactor="1.01" vaporized=""/>
    <tripinfo id="10" depart="10.00" departLane="597602753#0_0" departPos="5.10" departSpeed="20.50" departDelay="0.00" arrival="141.00" arrivalLane="-597602756#0_0" arrivalPos="325.99" arrivalSpeed="19.90" duration="131.00" routeLength="1646.04" waitingTime="40.00" waitingCount="1" stopTime="0.00" timeLoss="49.07" rerouteNo="0" devices="tripinfo_10" vType="DEFAULT_VEHTYPE" speedFactor="0.92" vaporized=""/>
    <tripinfo id="60" depart="61.00" departLane="918280985_0" departPos="5.10" departSpeed="12.76" departDelay="0.00" arrival="142.00" arrivalLane="15374898#0-AddedOffRampEdge_0" arrivalPos="100.00" arrivalSpeed="25.23" duration="81.00" routeLength="996.81" waitingTime="22.00" waitingCount="1" stopTime="0.00" timeLoss="38.00" rerouteNo="0" devices="tripinfo_60" vType="DEFAULT_VEHTYPE" speedFactor="0.92" vaporized=""/>
    <tripinfo id="96" depart="99.00" departLane="918280985_0" departPos="5.10" departSpeed="8.48" departDelay="0.00" arrival="143.00" arrivalLane="-318908683#1_0" arrivalPos="71.22" arrivalSpeed="11.27" duration="44.00" routeLength="674.50" waitingTime="0.00" waitingCount="0" stopTime="0.00" timeLoss="9.46" rerouteNo="0" devices="tripinfo_96" vType="DEFAULT_VEHTYPE" speedFactor="0.89" vaporized=""/>
    <tripinfo id="62" depart="63.00" departLane="-260998164#3_0" departPos="5.10" departSpeed="30.19" departDelay="0.00" arrival="145.00" arrivalLane="918280984_0" arrivalPos="38.78" arrivalSpeed="14.14" duration="82.00" routeLength="1465.15" waitingTime="12.00" waitingCount="1" stopTime="0.00" timeLoss="29.34" rerouteNo="0" devices="tripinfo_62" vType="DEFAULT_VEHTYPE" speedFactor="1.09" vaporized=""/>
    <tripinfo id="37" depart="41.00" departLane="597602756#0_0" departPos="5.10" departSpeed="20.01" departDelay="0.00" arrival="147.00" arrivalLane="260998164#0_0" arrivalPos="257.55" arrivalSpeed="24.17" duration="106.00" routeLength="1239.91" waitingTime="12.00" waitingCount="1" stopTime="0.00" timeLoss="24.73" rerouteNo="0" devices="tripinfo_37" vType="DEFAULT_VEHTYPE" speedFactor="0.90" vaporized=""/>
    <tripinfo id="29" depart="34.00" departLane="597602753#0_0" departPos="5.10" departSpeed="22.66" departDelay="0.00" arrival="152.00" arrivalLane="918280984_0" arrivalPos="38.78" arrivalSpeed="12.91" duration="118.00" routeLength="1540.95" waitingTime="12.00" waitingCount="1" stopTime="0.00" timeLoss="49.64" rerouteNo="0" devices="tripinfo_29" vType="DEFAULT_VEHTYPE" speedFactor="1.02" vaporized=""/>
    <tripinfo id="28" depart="32.00" departLane="105681660#12_0" departPos="5.10" departSpeed="21.52" departDelay="0.00" arrival="155.00" arrivalLane="918280984_0" arrivalPos="38.78" arrivalSpeed="13.39" duration="123.00" routeLength="1772.86" waitingTime="7.00" waitingCount="2" stopTime="0.00" timeLoss="39.35" rerouteNo="0" devices="tripinfo_28" vType="DEFAULT_VEHTYPE" speedFactor="0.97" vaporized=""/>
    <tripinfo id="32" depart="37.00" departLane="918280985_0" departPos="5.10" departSpeed="11.60" departDelay="0.00" arrival="155.00" arrivalLane="-105681660#20_0" arrivalPos="806.12" arrivalSpeed="17.33" duration="118.00" routeLength="1360.98" waitingTime="15.00" waitingCount="1" stopTime="0.00" timeLoss="26.43" rerouteNo="0" devices="tripinfo_32" vType="DEFAULT_VEHTYPE" speedFactor="0.83" vaporized=""/>
    <tripinfo id="99" depart="104.00" departLane="918280985_0" departPos="5.10" departSpeed="14.61" departDelay="0.00" arrival="156.00" arrivalLane="15374898#0-AddedOffRampEdge_0" arrivalPos="100.00" arrivalSpeed="30.03" duration="52.00" routeLength="996.81" waitingTime="0.00" waitingCount="0" stopTime="0.00" timeLoss="16.56" rerouteNo="0" devices="tripinfo_99" vType="DEFAULT_VEHTYPE" speedFactor="1.12" vaporized=""/>
    <tripinfo id="42" depart="44.00" departLane="318908683#0_0" departPos="5.10" departSpeed="7.85" departDelay="0.00" arrival="158.00" arrivalLane="-105681660#20_0" arrivalPos="806.12" arrivalSpeed="24.88" duration="114.00" routeLength="1436.85" waitingTime="18.00" waitingCount="1" stopTime="0.00" timeLoss="55.92" rerouteNo="0" devices="tripinfo_42" vType="DEFAULT_VEHTYPE" speedFactor="1.17" vaporized=""/>
    <tripinfo id="27" depart="31.00" departLane="-260998164#3_0" departPos="5.10" departSpeed="31.16" departDelay="0.00" arrival="162.00" arrivalLane="-105681660#20_0" arrivalPos="806.12" arrivalSpeed="23.88" duration="131.00" routeLength="2208.42" waitingTime="17.00" waitingCount="1" stopTime="0.00" timeLoss="47.23" rerouteNo="0" devices="tripinfo_27" vType="DEFAULT_VEHTYPE" speedFactor="1.12" vaporized=""/>
    <tripinfo id="69" depart="72.00" departLane="318908683#0_0" departPos="5.10" departSpeed="11.58" departDelay="0.00" arrival="171.00" arrivalLane="260998164#0_0" arrivalPos="257.55" arrivalSpeed="22.57" duration="99.00" routeLength="939.98" waitingTime="46.00" waitingCount="1" stopTime="0.00" timeLoss="54.23" rerouteNo="0" devices="tripinfo_69" vType="DEFAULT_VEHTYPE" speedFactor="0.83" vaporized=""/>
    <tripinfo id="72" depart="74.00" departLane="318908683#0_0" departPos="5.10" departSpeed="3.16" departDelay="0.00" arrival="175.00" arrivalLane="260998164#0_0" arrivalPos="257.55" arrivalSpeed="23.63" duration="101.00" routeLength="939.98" waitingTime="44.00" waitingCount="1" stopTime="0.00" timeLoss="57.20" rerouteNo="0" devices="tripinfo_72" vType="DEFAULT_VEHTYPE" speedFactor="0.86" vaporized=""/>
    <tripinfo id="89" depart="90.00" departLane="-260998164#3_0" departPos="5.10" departSpeed="26.96" departDelay="0.00" arrival="175.00" arrivalLane="-597602756#0_0" arrivalPos="325.99" arrivalSpeed="20.94" duration="85.00" routeLength="1231.40" waitingTime="0.00" waitingCount="0" stopTime="0.00" timeLoss="10.72" rerouteNo="0" devices="tripinfo_89" vType="DEFAULT_VEHTYPE" speedFactor="0.97" vaporized=""/>
    <tripinfo id="100" depart="106.00" departLane="918280985_0" departPos="5.10" departSpeed="13.33" departDelay="0.00" arrival="177.00" arrivalLane="-597602753#1_0" arrivalPos="143.59" arrivalSpeed="24.11" duration="71.00" routeLength="1123.56" waitingTime="0.00" waitingCount="0" stopTime="0.00" timeLoss="9.97" rerouteNo="0" devices="tripinfo_100" vType="DEFAULT_VEHTYPE" speedFactor="1.10" vaporized=""/>
    <tripinfo id="18" depart="25.00" departLane="597602753#0_0" departPos="5.10" departSpeed="20.37" departDelay="1.00" arrival="178.00" arrivalLane="260998164#0_0" arrivalPos="257.55" arrivalSpeed="28.58" duration="153.00" routeLength="1937.50" waitingTime="23.00" waitingCount="3" stopTime="0.00" timeLoss="61.00" rerouteNo="0" devices="tripinfo_18" vType="DEFAULT_VEHTYPE" speedFactor="1.03" vaporized=""/>
    <tripinfo id="30" depart="36.00" departLane="422685671#2_0" departPos="5.10" departSpeed="30.62" departDelay="0.00" arrival="182.00" arrivalLane="-597602756#0_0" arrivalPos="325.99" arrivalSpeed="23.99" duration="146.00" routeLength="1778.05" waitingTime="49.00" waitingCount="1" stopTime="0.00" timeLoss="73.64" rerouteNo="0" devices="tripinfo_30" vType="DEFAULT_VEHTYPE" speedFactor="1.10" vaporized=""/>
    <tripinfo id="73" depart="76.00" departLane="422688973_0" departPos="5.10" departSpeed="0.00" departDelay="0.00" arrival="182.00" arrivalLane="-105681660#20_0" arrivalPos="806.12" arrivalSpeed="19.07" duration="106.00" routeLength="1352.23" waitingTime="7.00" waitingCount="1" stopTime="0.00" timeLoss="23.14" rerouteNo="0" devices="tripinfo_73" vType="DEFAULT_VEHTYPE" speedFactor="0.91" vaporized=""/>
    <tripinfo id="19" depart="26.00" departLane="597602753#0_0" departPos="5.10" departSpeed="17.57" departDelay="1.00" arrival="183.00" arrivalLane="260998164#0_0" arrivalPos="257.55" arrivalSpeed="23.64" duration="157.00" routeLength="1937.50" waitingTime="16.00" waitingCount="2" stopTime="0.00" timeLoss="50.36" rerouteNo="0" devices="tripinfo_19" vType="DEFAULT_VEHTYPE" speedFactor="0.89" vaporized=""/>
    <tripinfo id="46" depart="47.00" departLane="918280985_0" departPos="5.10" departSpeed="13.36" departDelay="0.00" arrival="184.00" arrivalLane="-105681660#20_0" arrivalPos="806.12" arrivalSpeed="20.19" duration="137.00" routeLength="1360.98" waitingTime="39.00" waitingCount="2" stopTime="0.00" timeLoss="56.96" rerouteNo="0" devices="tripinfo_46" vType="DEFAULT_VEHTYPE" speedFactor="0.96" vaporized=""/>
    <tripinfo id="57" depart="56.00" departLane="918280985_0" departPos="5.10" departSpeed="14.66" departDelay="0.00" arrival="186.00" arrivalLane="260998164#0_0" arrivalPos="257.55" arrivalSpeed="28.87" duration="130.00" routeLength="1460.33" waitingTime="55.00" waitingCount="2" stopTime="0.00" timeLoss="76.40" rerouteNo="0" devices="tripinfo_57" vType="DEFAULT_VEHTYPE" speedFactor="1.06" vaporized=""/>
    <tripinfo id="92" depart="94.00" departLane="105681660#12_0" departPos="5.10" departSpeed="20.39" departDelay="1.00" arrival="186.00" arrivalLane="-597602753#1_0" arrivalPos="143.59" arrivalSpeed="21.09" duration="92.00" routeLength="1380.56" waitingTime="1.00" waitingCount="1" stopTime="0.00" timeLoss="26.88" rerouteNo="0" devices="tripinfo_92" vType="DEFAULT_VEHTYPE" speedFactor="0.98" vaporized=""/>
    <tripinfo id="80" depart="83.00" departLane="-260998164#3_0" departPos="5.10" departSpeed="29.89" departDelay="0.00" arrival="190.00" arrivalLane="15374898#0-AddedOffRampEdge_1" arrivalPos="100.00" arrivalSpeed="29.67" duration="107.00" routeLength="1332.80" waitingTime="48.00" waitingCount="1" stopTime="0.00" timeLoss="62.05" rerouteNo="0" devices="tripinfo_80" vType="DEFAULT_VEHTYPE" speedFactor="1.08" vaporized=""/>
    <tripinfo id="86" depart="89.00" departLane="918280985_0" departPos="5.10" departSpeed="3.00" departDelay="0.00" arrival="190.00" arrivalLane="260998164#0_0" arrivalPos="257.55" arrivalSpeed="30.41" duration="101.00" routeLength="1460.33" waitingTime="24.00" waitingCount="2" stopTime="0.00" timeLoss="49.09" rerouteNo="0" devices="tripinfo_86" vType="DEFAULT_VEHTYPE" speedFactor="1.10" vaporized=""/>
    <tripinfo id="88" depart="95.00" departLane="918280985_0" departPos="5.10" departSpeed="4.02" departDelay="5.00" arrival="191.00" arrivalLane="260998164#0_0" arrivalPos="257.55" arrivalSpeed="31.09" duration="96.00" routeLength="1460.33" waitingTime="20.00" waitingCount="1" stopTime="0.00" timeLoss="47.41" rerouteNo="0" devices="tripinfo_88" vType="DEFAULT_VEHTYPE" speedFactor="1.18" vaporized=""/>
    <tripinfo id="68" depart="71.00" departLane="-260998164#3_0" departPos="5.10" departSpeed="26.18" departDelay="0.00" arrival="192.00" arrivalLane="15374898#0-AddedOffRampEdge_0" arrivalPos="100.00" arrivalSpeed="25.96" duration="121.00" routeLength="1332.80" waitingTime="58.00" waitingCount="1" stopTime="0.00" timeLoss="70.09" rerouteNo="0" devices="tripinfo_68" vType="DEFAULT_VEHTYPE" speedFactor="0.94" vaporized=""/>
    <tripinfo id="104" depart="111.00" departLane="-260998164#3_0" departPos="5.10" departSpeed="21.26" departDelay="2.00" arrival="194.00" arrivalLane="-597602756#0_0" arrivalPos="325.99" arrivalSpeed="21.83" duration="83.00" routeLength="1231.40" waitingTime="0.00" waitingCount="0" stopTime="0.00" timeLoss="13.18" rerouteNo="0" devices="tripinfo_104" vType="DEFAULT_VEHTYPE" speedFactor="1.04" vaporized=""/>
    <tripinfo id="102" depart="110.00" departLane="-260998164#3_0" departPos="5.10" departSpeed="23.25" departDelay="2.00" arrival="195.00" arrivalLane="15374898#0-AddedOffRampEdge_1" arrivalPos="100.00" arrivalSpeed="22.27" duration="85.00" routeLength="1332.80" waitingTime="16.00" waitingCount="1" stopTime="0.00" timeLoss="27.03" rerouteNo="0" devices="tripinfo_102" vType="DEFAULT_VEHTYPE" speedFactor="0.84" vaporized=""/>
    <tripinfo id="8" depart="9.00" departLane="105681660#12_0" departPos="5.10" departSpeed="22.60" departDelay="0.00" arrival="196.00" arrivalLane="15374898#0-AddedOffRampEdge_1" arrivalPos="100.00" arrivalSpeed="23.96" duration="187.00" routeLength="2213.07" waitingTime="43.00" waitingCount="2" stopTime="0.00" timeLoss="81.60" rerouteNo="0" devices="tripinfo_8" vType="DEFAULT_VEHTYPE" speedFactor="1.02" vaporized=""/>
    <tripinfo id="116" depart="123.00" departLane="422688973_0" departPos="5.10" departSpeed="26.12" departDelay="0.00" arrival="198.00" arrivalLane="260998164#0_0" arrivalPos="257.55" arrivalSpeed="25.43" duration="75.00" routeLength="1470.06" waitingTime="4.00" waitingCount="1" stopTime="0.00" timeLoss="16.56" rerouteNo="0" devices="tripinfo_116" vType="DEFAULT_VEHTYPE" speedFactor="0.94" vaporized=""/>
    <tripinfo id="45" depart="46.00" departLane="105681660#12_0" departPos="5.10" departSpeed="22.29" departDelay="0.00" arrival="199.00" arrivalLane="15374898#0-AddedOffRampEdge_1" arrivalPos="100.00" arrivalSpeed="27.48" duration="153.00" routeLength="2213.07" waitingTime="2.00" waitingCount="1" stopTime="0.00" timeLoss="45.74" rerouteNo="0" devices="tripinfo_45" vType="DEFAULT_VEHTYPE" speedFactor="1.00" vaporized=""/>
    <tripinfo id="17" depart="24.00" departLane="597602753#0_0" departPos="5.10" departSpeed="22.45" departDelay="0.00" arrival="201.00" arrivalLane="-318908683#1_0" arrivalPos="71.22" arrivalSpeed="13.32" duration="177.00" routeLength="1603.43" waitingTime="54.00" waitingCount="3" stopTime="0.00" timeLoss="91.79" rerouteNo="0" devices="tripinfo_17" vType="DEFAULT_VEHTYPE" speedFactor="1.01" vaporized=""/>
    <tripinfo id="64" depart="68.00" departLane="597602753#0_0" departPos="5.10" departSpeed="19.24" departDelay="1.00" arrival="202.00" arrivalLane="15374898#0-AddedOffRampEdge_1" arrivalPos="100.00" arrivalSpeed="26.15" duration="134.00" routeLength="1981.16" waitingTime="0.00" waitingCount="0" stopTime="0.00" timeLoss="35.26" rerouteNo="0" devices="tripinfo_64" vType="DEFAULT_VEHTYPE" speedFactor="0.98" vaporized=""/>
    <tripinfo id="47" depart="49.00" departLane="597602753#0_0" departPos="5.10" departSpeed="22.15" departDelay="0.00" arrival="203.00" arrivalLane="422688976#1_1" arrivalPos="294.40" arrivalSpeed="27.59" duration="154.00" routeLength="1788.22" waitingTime="36.00" waitingCount="2" stopTime="0.00" timeLoss="79.48" rerouteNo="0" devices="tripinfo_47" vType="DEFAULT_VEHTYPE" speedFactor="1.00" vaporized=""/>
    <tripinfo id="52" depart="51.00" departLane="422685671#2_0" departPos="5.10" departSpeed="25.19" departDelay="0.00" arrival="204.00" arrivalLane="422688976#1_0" arrivalPos="294.40" arrivalSpeed="24.66" duration="153.00" routeLength="1317.05" waitingTime="77.00" waitingCount="2" stopTime="0.00" timeLoss="98.54" rerouteNo="0" devices="tripinfo_52" vType="DEFAULT_VEHTYPE" speedFactor="0.91" vaporized=""/>
    <tripinfo id="66" depart="67.00" departLane="597602753#0_0" departPos="5.10" departSpeed="21.68" departDelay="0.00" arrival="204.00" arrivalLane="-318908683#1_0" arrivalPos="71.22" arrivalSpeed="12.60" duration="137.00" routeLength="1603.43" waitingTime="14.00" waitingCount="1" stopTime="0.00" timeLoss="48.64" rerouteNo="0" devices="tripinfo_66" vType="DEFAULT_VEHTYPE" speedFactor="0.98" vaporized=""/>