<?xml version="1.0" encoding="UTF-8"?>

<!-- generated on 2023-04-29 14:05:49 by Eclipse SUMO sumo Version 1.16.0
<configuration xmlns:xsi="http://www.w3.org/2001/XMLSchema-instance" xsi:noNamespaceSchemaLocation="http://sumo.dlr.de/xsd/sumoConfiguration.xsd">

    <input>
        <net-file value="C:\Users\Local_Man\Desktop\Stolen%20Music\school%20stuff%20for%20college\Semester%2015%20(UH%20Graduate%20School)\COSC%206364%20Nikolaos\SUMO_Project\COSC6364_Project\configurations\maps\4corners_neighborhoods.net.xml"/>
        <route-files value="./configurations/Rounds/4corners_neighborhoods.net.xml-test-0/Microscopic_DUE/003/Trips_File_003.rou.xml"/>
    </input>

    <output>
        <summary-output value="./configurations/Rounds/4corners_neighborhoods.net.xml-test-0/Microscopic_DUE/003/summary.xml"/>
        <tripinfo-output value="./configurations/Rounds/4corners_neighborhoods.net.xml-test-0/Microscopic_DUE/003/trips.trips.xml"/>
        <statistic-output value="./configurations/Rounds/4corners_neighborhoods.net.xml-test-0/Microscopic_DUE/003/stats_output.xml"/>
    </output>

    <time>
        <begin value="0"/>
    </time>

    <report>
        <log value="./configurations/Rounds/4corners_neighborhoods.net.xml-test-0/Microscopic_DUE/003/log.sumo.log"/>
        <no-step-log value="true"/>
    </report>

    <gui_only>
        <quit-on-end value="true"/>
    </gui_only>

</configuration>
-->

<tripinfos xmlns:xsi="http://www.w3.org/2001/XMLSchema-instance" xsi:noNamespaceSchemaLocation="http://sumo.dlr.de/xsd/tripinfo_file.xsd">
    <tripinfo id="24" depart="19.00" departLane="318908683#0_0" departPos="5.10" departSpeed="0.00" departDelay="0.00" arrival="77.00" arrivalLane="260998164#0_0" arrivalPos="257.55" arrivalSpeed="26.38" duration="58.00" routeLength="939.98" waitingTime="7.00" waitingCount="1" stopTime="0.00" timeLoss="19.17" rerouteNo="0" devices="tripinfo_24" vType="DEFAULT_VEHTYPE" speedFactor="0.97" vaporized=""/>
    <tripinfo id="32" depart="26.00" departLane="318908683#0_0" departPos="5.10" departSpeed="0.00" departDelay="0.00" arrival="80.00" arrivalLane="918280984_0" arrivalPos="38.78" arrivalSpeed="15.76" duration="54.00" routeLength="693.58" waitingTime="3.00" waitingCount="2" stopTime="0.00" timeLoss="27.09" rerouteNo="0" devices="tripinfo_32" vType="DEFAULT_VEHTYPE" speedFactor="1.18" vaporized=""/>
    <tripinfo id="39" depart="33.00" departLane="318908683#0_0" departPos="5.10" departSpeed="0.00" departDelay="0.00" arrival="81.00" arrivalLane="918280984_0" arrivalPos="38.78" arrivalSpeed="16.12" duration="48.00" routeLength="693.58" waitingTime="1.00" waitingCount="1" stopTime="0.00" timeLoss="21.74" rerouteNo="0" devices="tripinfo_39" vType="DEFAULT_VEHTYPE" speedFactor="1.18" vaporized=""/>
    <tripinfo id="43" depart="39.00" departLane="318908683#0_0" departPos="5.10" departSpeed="0.00" departDelay="0.00" arrival="87.00" arrivalLane="260998164#0_0" arrivalPos="257.55" arrivalSpeed="26.14" duration="48.00" routeLength="939.98" waitingTime="0.00" waitingCount="0" stopTime="0.00" timeLoss="8.23" rerouteNo="0" devices="tripinfo_43" vType="DEFAULT_VEHTYPE" speedFactor="0.96" vaporized=""/>
    <tripinfo id="7" depart="9.00" departLane="918280985_0" departPos="5.10" departSpeed="0.00" departDelay="0.00" arrival="92.00" arrivalLane="15374898#0-AddedOffRampEdge_0" arrivalPos="100.00" arrivalSpeed="21.93" duration="83.00" routeLength="996.81" waitingTime="21.00" waitingCount="1" stopTime="0.00" timeLoss="35.22" rerouteNo="0" devices="tripinfo_7" vType="DEFAULT_VEHTYPE" speedFactor="0.83" vaporized=""/>
    <tripinfo id="14" depart="13.00" departLane="597602753#0_0" departPos="5.10" departSpeed="0.00" departDelay="0.00" arrival="99.00" arrivalLane="918280984_0" arrivalPos="38.78" arrivalSpeed="14.31" duration="86.00" routeLength="1061.00" waitingTime="0.00" waitingCount="0" stopTime="0.00" timeLoss="16.76" rerouteNo="0" devices="tripinfo_14" vType="DEFAULT_VEHTYPE" speedFactor="1.05" vaporized=""/>
    <tripinfo id="16" depart="16.00" departLane="422688973_0" departPos="5.10" departSpeed="0.00" departDelay="0.00" arrival="101.00" arrivalLane="15374898#0-AddedOffRampEdge_0" arrivalPos="100.00" arrivalSpeed="26.94" duration="85.00" routeLength="1006.54" waitingTime="29.00" waitingCount="1" stopTime="0.00" timeLoss="47.69" rerouteNo="0" devices="tripinfo_16" vType="DEFAULT_VEHTYPE" speedFactor="0.99" vaporized=""/>
    <tripinfo id="46" depart="46.00" departLane="-260998164#3_0" departPos="5.10" departSpeed="0.00" departDelay="0.00" arrival="104.00" arrivalLane="15374898#0-AddedOffRampEdge_1" arrivalPos="100.00" arrivalSpeed="28.30" duration="58.00" routeLength="1332.80" waitingTime="0.00" waitingCount="0" stopTime="0.00" timeLoss="11.52" rerouteNo="0" devices="tripinfo_46" vType="DEFAULT_VEHTYPE" speedFactor="1.04" vaporized=""/>
    <tripinfo id="33" depart="27.00" departLane="-260998164#3_0" departPos="5.10" departSpeed="0.00" departDelay="0.00" arrival="106.00" arrivalLane="-318908683#1_0" arrivalPos="71.22" arrivalSpeed="14.96" duration="79.00" routeLength="955.07" waitingTime="30.00" waitingCount="1" stopTime="0.00" timeLoss="45.41" rerouteNo="0" devices="tripinfo_33" vType="DEFAULT_VEHTYPE" speedFactor="1.15" vaporized=""/>
    <tripinfo id="38" depart="36.00" departLane="-260998164#3_0" departPos="5.10" departSpeed="0.00" departDelay="3.00" arrival="109.00" arrivalLane="-318908683#1_0" arrivalPos="71.22" arrivalSpeed="12.25" duration="73.00" routeLength="955.07" waitingTime="18.00" waitingCount="1" stopTime="0.00" timeLoss="33.27" rerouteNo="0" devices="tripinfo_38" vType="DEFAULT_VEHTYPE" speedFactor="0.97" vaporized=""/>
    <tripinfo id="3" depart="6.00" departLane="422685671#2_0" departPos="5.10" departSpeed="0.00" departDelay="2.00" arrival="110.00" arrivalLane="-597602756#0_0" arrivalPos="325.99" arrivalSpeed="20.65" duration="104.00" routeLength="1778.05" waitingTime="0.00" waitingCount="0" stopTime="0.00" timeLoss="20.68" rerouteNo="0" devices="tripinfo_3" vType="DEFAULT_VEHTYPE" speedFactor="0.94" vaporized=""/>
    <tripinfo id="28" depart="23.00" departLane="422688973_0" departPos="5.10" departSpeed="0.00" departDelay="0.00" arrival="111.00" arrivalLane="15374898#0-AddedOffRampEdge_0" arrivalPos="100.00" arrivalSpeed="24.35" duration="88.00" routeLength="1006.54" waitingTime="22.00" waitingCount="1" stopTime="0.00" timeLoss="47.91" rerouteNo="0" devices="tripinfo_28" vType="DEFAULT_VEHTYPE" speedFactor="0.92" vaporized=""/>
    <tripinfo id="18" depart="17.00" departLane="597602756#0_0" departPos="5.10" departSpeed="0.00" departDelay="0.00" arrival="115.00" arrivalLane="260998164#0_0" arrivalPos="257.55" arrivalSpeed="24.23" duration="98.00" routeLength="1239.91" waitingTime="0.00" waitingCount="0" stopTime="0.00" timeLoss="15.44" rerouteNo="0" devices="tripinfo_18" vType="DEFAULT_VEHTYPE" speedFactor="0.88" vaporized=""/>
    <tripinfo id="2" depart="3.00" departLane="422685671#2_0" departPos="5.10" departSpeed="0.00" departDelay="0.00" arrival="117.00" arrivalLane="260998164#0_0" arrivalPos="257.55" arrivalSpeed="28.43" duration="114.00" routeLength="1329.43" waitingTime="47.00" waitingCount="1" stopTime="0.00" timeLoss="68.25" rerouteNo="0" devices="tripinfo_2" vType="DEFAULT_VEHTYPE" speedFactor="1.06" vaporized=""/>
    <tripinfo id="6" depart="9.00" departLane="422685671#2_0" departPos="5.10" departSpeed="0.00" departDelay="0.00" arrival="119.00" arrivalLane="260998164#0_0" arrivalPos="257.55" arrivalSpeed="28.35" duration="110.00" routeLength="1329.43" waitingTime="37.00" waitingCount="2" stopTime="0.00" timeLoss="62.69" rerouteNo="0" devices="tripinfo_6" vType="DEFAULT_VEHTYPE" speedFactor="1.03" vaporized=""/>
    <tripinfo id="44" depart="42.00" departLane="318908683#0_0" departPos="5.10" departSpeed="0.00" departDelay="2.00" arrival="120.00" arrivalLane="-597602756#0_0" arrivalPos="325.99" arrivalSpeed="23.13" duration="78.00" routeLength="1401.85" waitingTime="0.00" waitingCount="0" stopTime="0.00" timeLoss="17.04" rerouteNo="0" devices="tripinfo_44" vType="DEFAULT_VEHTYPE" speedFactor="1.09" vaporized=""/>
    <tripinfo id="20" depart="17.00" departLane="422685671#2_0" departPos="5.10" departSpeed="0.00" departDelay="0.00" arrival="122.00" arrivalLane="260998164#0_0" arrivalPos="257.55" arrivalSpeed="25.08" duration="105.00" routeLength="1329.43" waitingTime="30.00" waitingCount="2" stopTime="0.00" timeLoss="53.88" rerouteNo="0" devices="tripinfo_20" vType="DEFAULT_VEHTYPE" speedFactor="0.94" vaporized=""/>
    <tripinfo id="40" depart="36.00" departLane="318908683#0_0" departPos="5.10" departSpeed="0.00" departDelay="3.00" arrival="122.00" arrivalLane="-597602753#1_0" arrivalPos="143.59" arrivalSpeed="24.35" duration="86.00" routeLength="1208.14" waitingTime="12.00" waitingCount="1" stopTime="0.00" timeLoss="35.16" rerouteNo="0" devices="tripinfo_40" vType="DEFAULT_VEHTYPE" speedFactor="1.10" vaporized=""/>
    <tripinfo id="11" depart="15.00" departLane="422688973_0" departPos="5.10" departSpeed="0.00" departDelay="2.00" arrival="123.00" arrivalLane="-105681660#20_0" arrivalPos="806.12" arrivalSpeed="18.45" duration="108.00" routeLength="1352.23" waitingTime="4.00" waitingCount="1" stopTime="0.00" timeLoss="20.38" rerouteNo="0" devices="tripinfo_11" vType="DEFAULT_VEHTYPE" speedFactor="0.86" vaporized=""/>
    <tripinfo id="12" depart="15.00" departLane="918280985_0" departPos="5.10" departSpeed="0.00" departDelay="2.00" arrival="125.00" arrivalLane="-105681660#20_0" arrivalPos="806.12" arrivalSpeed="22.54" duration="110.00" routeLength="1360.98" waitingTime="17.00" waitingCount="1" stopTime="0.00" timeLoss="39.53" rerouteNo="0" devices="tripinfo_12" vType="DEFAULT_VEHTYPE" speedFactor="1.09" vaporized=""/>
    <tripinfo id="25" depart="22.00" departLane="597602753#0_0" departPos="5.10" departSpeed="0.00" departDelay="0.00" arrival="125.00" arrivalLane="422688976#1_0" arrivalPos="294.40" arrivalSpeed="24.13" duration="103.00" routeLength="1286.53" waitingTime="0.00" waitingCount="0" stopTime="0.00" timeLoss="14.98" rerouteNo="0" devices="tripinfo_25" vType="DEFAULT_VEHTYPE" speedFactor="0.89" vaporized=""/>
    <tripinfo id="10" depart="12.00" departLane="422688973_0" departPos="5.10" departSpeed="0.00" departDelay="0.00" arrival="127.00" arrivalLane="-318908683#1_0" arrivalPos="71.22" arrivalSpeed="11.84" duration="115.00" routeLength="684.23" waitingTime="63.00" waitingCount="2" stopTime="0.00" timeLoss="84.61" rerouteNo="0" devices="tripinfo_10" vType="DEFAULT_VEHTYPE" speedFactor="0.94" vaporized=""/>
    <tripinfo id="53" depart="56.00" departLane="918280985_0" departPos="5.10" departSpeed="0.00" departDelay="0.00" arrival="128.00" arrivalLane="-318908683#1_0" arrivalPos="71.22" arrivalSpeed="14.82" duration="72.00" routeLength="674.50" waitingTime="26.00" waitingCount="1" stopTime="0.00" timeLoss="46.53" rerouteNo="0" devices="tripinfo_53" vType="DEFAULT_VEHTYPE" speedFactor="1.17" vaporized=""/>
    <tripinfo id="15" depart="16.00" departLane="597602753#0_0" departPos="5.10" departSpeed="0.00" departDelay="3.00" arrival="130.00" arrivalLane="-318908683#1_0" arrivalPos="71.22" arrivalSpeed="14.75" duration="114.00" routeLength="1642.11" waitingTime="0.00" waitingCount="0" stopTime="0.00" timeLoss="29.44" rerouteNo="0" devices="tripinfo_15" vType="DEFAULT_VEHTYPE" speedFactor="1.12" vaporized=""/>
    <tripinfo id="13" depart="13.00" departLane="-260998164#3_0" departPos="5.10" departSpeed="0.00" departDelay="0.00" arrival="133.00" arrivalLane="422688976#1_0" arrivalPos="294.40" arrivalSpeed="27.78" duration="120.00" routeLength="1702.46" waitingTime="32.00" waitingCount="1" stopTime="0.00" timeLoss="59.50" rerouteNo="0" devices="tripinfo_13" vType="DEFAULT_VEHTYPE" speedFactor="1.03" vaporized=""/>
    <tripinfo id="22" depart="18.00" departLane="-260998164#3_0" departPos="5.10" departSpeed="0.00" departDelay="0.00" arrival="134.00" arrivalLane="422688976#1_1" arrivalPos="294.40" arrivalSpeed="27.02" duration="116.00" routeLength="1712.42" waitingTime="26.00" waitingCount="2" stopTime="0.00" timeLoss="53.94" rerouteNo="0" devices="tripinfo_22" vType="DEFAULT_VEHTYPE" speedFactor="1.02" vaporized=""/>
    <tripinfo id="4" depart="6.00" departLane="422688973_0" departPos="5.10" departSpeed="0.00" departDelay="0.00" arrival="136.00" arrivalLane="-597602756#0_0" arrivalPos="325.99" arrivalSpeed="21.77" duration="130.00" routeLength="1900.12" waitingTime="20.00" waitingCount="1" stopTime="0.00" timeLoss="47.35" rerouteNo="0" devices="tripinfo_4" vType="DEFAULT_VEHTYPE" speedFactor="1.01" vaporized=""/>
    <tripinfo id="34" depart="29.00" departLane="597602756#0_0" departPos="5.10" departSpeed="0.00" departDelay="0.00" arrival="140.00" arrivalLane="260998164#0_0" arrivalPos="257.55" arrivalSpeed="27.78" duration="111.00" routeLength="1239.91" waitingTime="17.00" waitingCount="1" stopTime="0.00" timeLoss="37.96" rerouteNo="0" devices="tripinfo_34" vType="DEFAULT_VEHTYPE" speedFactor="1.01" vaporized=""/>
    <tripinfo id="49" depart="49.00" departLane="918280985_0" departPos="5.10" departSpeed="0.00" departDelay="0.00" arrival="140.00" arrivalLane="15374898#0-AddedOffRampEdge_0" arrivalPos="100.00" arrivalSpeed="24.78" duration="91.00" routeLength="996.81" waitingTime="33.00" waitingCount="1" stopTime="0.00" timeLoss="47.54" rerouteNo="0" devices="tripinfo_49" vType="DEFAULT_VEHTYPE" speedFactor="0.90" vaporized=""/>
    <tripinfo id="8" depart="12.00" departLane="918280985_0" departPos="5.10" departSpeed="0.00" departDelay="3.00" arrival="142.00" arrivalLane="-597602756#0_0" arrivalPos="325.99" arrivalSpeed="22.69" duration="130.00" routeLength="1890.39" waitingTime="20.00" waitingCount="1" stopTime="0.00" timeLoss="47.93" rerouteNo="0" devices="tripinfo_8" vType="DEFAULT_VEHTYPE" speedFactor="1.05" vaporized=""/>
    <tripinfo id="23" depart="21.00" departLane="-260998164#3_0" departPos="5.10" departSpeed="0.00" departDelay="3.00" arrival="143.00" arrivalLane="918280984_0" arrivalPos="38.78" arrivalSpeed="12.82" duration="122.00" routeLength="1455.19" waitingTime="42.00" waitingCount="2" stopTime="0.00" timeLoss="66.16" rerouteNo="0" devices="tripinfo_23" vType="DEFAULT_VEHTYPE" speedFactor="1.01" vaporized=""/>
    <tripinfo id="47" depart="48.00" departLane="422685671#2_0" departPos="5.10" departSpeed="0.00" departDelay="0.00" arrival="145.00" arrivalLane="918280984_0" arrivalPos="38.78" arrivalSpeed="14.61" duration="97.00" routeLength="1069.78" waitingTime="26.00" waitingCount="1" stopTime="0.00" timeLoss="56.48" rerouteNo="0" devices="tripinfo_47" vType="DEFAULT_VEHTYPE" speedFactor="1.09" vaporized=""/>
    <tripinfo id="17" depart="19.00" departLane="597602753#0_0" departPos="5.10" departSpeed="0.00" departDelay="2.00" arrival="149.00" arrivalLane="-597602756#0_0" arrivalPos="325.99" arrivalSpeed="19.59" duration="130.00" routeLength="1646.04" waitingTime="25.00" waitingCount="2" stopTime="0.00" timeLoss="48.65" rerouteNo="0" devices="tripinfo_17" vType="DEFAULT_VEHTYPE" speedFactor="0.93" vaporized=""/>
    <tripinfo id="58" depart="62.00" departLane="105681660#12_0" departPos="5.10" departSpeed="0.00" departDelay="0.00" arrival="151.00" arrivalLane="-597602753#1_0" arrivalPos="143.59" arrivalSpeed="19.76" duration="89.00" routeLength="1380.56" waitingTime="1.00" waitingCount="1" stopTime="0.00" timeLoss="18.05" rerouteNo="0" devices="tripinfo_58" vType="DEFAULT_VEHTYPE" speedFactor="0.90" vaporized=""/>
    <tripinfo id="26" depart="22.00" departLane="918280985_0" departPos="5.10" departSpeed="0.00" departDelay="0.00" arrival="158.00" arrivalLane="-105681660#20_0" arrivalPos="806.12" arrivalSpeed="18.34" duration="136.00" routeLength="1360.98" waitingTime="23.00" waitingCount="2" stopTime="0.00" timeLoss="43.10" rerouteNo="0" devices="tripinfo_26" vType="DEFAULT_VEHTYPE" speedFactor="0.83" vaporized=""/>
    <tripinfo id="71" depart="73.00" departLane="422688973_0" departPos="5.10" departSpeed="0.00" departDelay="0.00" arrival="159.00" arrivalLane="-105681660#20_0" arrivalPos="806.12" arrivalSpeed="19.18" duration="86.00" routeLength="1352.23" waitingTime="0.00" waitingCount="0" stopTime="0.00" timeLoss="12.64" rerouteNo="0" devices="tripinfo_71" vType="DEFAULT_VEHTYPE" speedFactor="1.02" vaporized=""/>
    <tripinfo id="37" depart="33.00" departLane="-260998164#3_0" departPos="5.10" departSpeed="0.00" departDelay="3.00" arrival="160.00" arrivalLane="-597602753#1_0" arrivalPos="143.59" arrivalSpeed="21.66" duration="127.00" routeLength="1979.71" waitingTime="12.00" waitingCount="2" stopTime="0.00" timeLoss="45.53" rerouteNo="0" devices="tripinfo_37" vType="DEFAULT_VEHTYPE" speedFactor="1.02" vaporized=""/>
    <tripinfo id="42" depart="39.00" departLane="-260998164#3_0" departPos="5.10" departSpeed="0.00" departDelay="2.00" arrival="162.00" arrivalLane="-597602753#1_0" arrivalPos="143.59" arrivalSpeed="22.75" duration="123.00" routeLength="1979.71" waitingTime="6.00" waitingCount="1" stopTime="0.00" timeLoss="41.84" rerouteNo="0" devices="tripinfo_42" vType="DEFAULT_VEHTYPE" speedFactor="1.03" vaporized=""/>
    <tripinfo id="59" depart="63.00" departLane="422688973_0" departPos="5.10" departSpeed="0.00" departDelay="0.00" arrival="162.00" arrivalLane="15374898#0-AddedOffRampEdge_0" arrivalPos="100.00" arrivalSpeed="31.63" duration="99.00" routeLength="1006.54" waitingTime="44.00" waitingCount="1" stopTime="0.00" timeLoss="66.60" rerouteNo="0" devices="tripinfo_59" vType="DEFAULT_VEHTYPE" speedFactor="1.14" vaporized=""/>
    <tripinfo id="35" depart="30.00" departLane="-260998164#3_0" departPos="5.10" departSpeed="0.00" departDelay="0.00" arrival="164.00" arrivalLane="-105681660#20_0" arrivalPos="806.12" arrivalSpeed="24.89" duration="134.00" routeLength="2208.42" waitingTime="20.00" waitingCount="2" stopTime="0.00" timeLoss="54.45" rerouteNo="0" devices="tripinfo_35" vType="DEFAULT_VEHTYPE" speedFactor="1.17" vaporized=""/>
    <tripinfo id="52" depart="54.00" departLane="-260998164#3_0" departPos="5.10" departSpeed="0.00" departDelay="0.00" arrival="166.00" arrivalLane="-597602756#0_0" arrivalPos="325.99" arrivalSpeed="18.98" duration="112.00" routeLength="1707.85" waitingTime="0.00" waitingCount="0" stopTime="0.00" timeLoss="15.25" rerouteNo="0" devices="tripinfo_52" vType="DEFAULT_VEHTYPE" speedFactor="0.85" vaporized=""/>
    <tripinfo id="9" depart="12.00" departLane="422685671#2_0" departPos="5.10" departSpeed="0.00" departDelay="0.00" arrival="167.00" arrivalLane="-597602753#1_0" arrivalPos="143.59" arrivalSpeed="19.53" duration="155.00" routeLength="1584.34" waitingTime="56.00" waitingCount="1" stopTime="0.00" timeLoss="76.98" rerouteNo="0" devices="tripinfo_9" vType="DEFAULT_VEHTYPE" speedFactor="0.89" vaporized=""/>
    <tripinfo id="73" depart="80.00" departLane="-260998164#3_0" departPos="5.10" departSpeed="0.00" departDelay="0.00" arrival="171.00" arrivalLane="-597602756#0_0" arrivalPos="325.99" arrivalSpeed="20.49" duration="91.00" routeLength="1231.40" waitingTime="0.00" waitingCount="0" stopTime="0.00" timeLoss="17.04" rerouteNo="0" devices="tripinfo_73" vType="DEFAULT_VEHTYPE" speedFactor="0.97" vaporized=""/>
    <tripinfo id="82" depart="92.00" departLane="597602753#0_0" departPos="5.10" departSpeed="0.00" departDelay="0.00" arrival="173.00" arrivalLane="918280984_0" arrivalPos="38.78" arrivalSpeed="13.88" duration="81.00" routeLength="1061.00" waitingTime="0.00" waitingCount="0" stopTime="0.00" timeLoss="11.16" rerouteNo="0" devices="tripinfo_82" vType="DEFAULT_VEHTYPE" speedFactor="1.03" vaporized=""/>
    <tripinfo id="121" depart="118.00" departLane="422688973_0" departPos="5.10" departSpeed="0.00" departDelay="0.00" arrival="174.00" arrivalLane="15374898#0-AddedOffRampEdge_0" arrivalPos="100.00" arrivalSpeed="29.15" duration="56.00" routeLength="1006.54" waitingTime="0.00" waitingCount="0" stopTime="0.00" timeLoss="21.31" rerouteNo="0" devices="tripinfo_121" vType="DEFAULT_VEHTYPE" speedFactor="1.07" vaporized=""/>
    <tripinfo id="31" depart="28.00" departLane="597602753#0_0" departPos="5.10" departSpeed="0.00" departDelay="2.00" arrival="180.00" arrivalLane="260998164#0_0" arrivalPos="257.55" arrivalSpeed="25.72" duration="152.00" routeLength="1937.50" waitingTime="21.00" waitingCount="1" stopTime="0.00" timeLoss="51.24" rerouteNo="0" devices="tripinfo_31" vType="DEFAULT_VEHTYPE" speedFactor="0.93" vaporized=""/>
    <tripinfo id="78" depart="88.00" departLane="597602753#0_0" departPos="5.10" departSpeed="0.00" departDelay="0.00" arrival="180.00" arrivalLane="-105681660#20_0" arrivalPos="806.12" arrivalSpeed="21.73" duration="92.00" routeLength="1387.70" waitingTime="13.00" waitingCount="2" stopTime="0.00" timeLoss="30.39" rerouteNo="0" devices="tripinfo_78" vType="DEFAULT_VEHTYPE" speedFactor="1.03" vaporized=""/>
    <tripinfo id="21" depart="18.00" departLane="422688973_0" departPos="5.10" departSpeed="0.00" departDelay="0.00" arrival="181.00" arrivalLane="260998164#0_0" arrivalPos="257.55" arrivalSpeed="26.77" duration="163.00" routeLength="1470.06" waitingTime="85.00" waitingCount="2" stopTime="0.00" timeLoss="116.19" rerouteNo="0" devices="tripinfo_21" vType="DEFAULT_VEHTYPE" speedFactor="1.16" vaporized=""/>
    <tripinfo id="51" depart="53.00" departLane="422688973_0" departPos="5.10" departSpeed="0.00" departDelay="0.00" arrival="186.00" arrivalLane="260998164#0_0" arrivalPos="257.55" arrivalSpeed="23.29" duration="133.00" routeLength="1470.06" waitingTime="52.00" waitingCount="1" stopTime="0.00" timeLoss="68.95" rerouteNo="0" devices="tripinfo_51" vType="DEFAULT_VEHTYPE" speedFactor="0.85" vaporized=""/>
    <tripinfo id="68" depart="70.00" departLane="918280985_0" departPos="5.10" departSpeed="0.00" departDelay="0.00" arrival="188.00" arrivalLane="-597602753#1_0" arrivalPos="143.59" arrivalSpeed="19.56" duration="118.00" routeLength="1072.66" waitingTime="19.00" waitingCount="1" stopTime="0.00" timeLoss="37.42" rerouteNo="0" devices="tripinfo_68" vType="DEFAULT_VEHTYPE" speedFactor="0.91" vaporized=""/>
    <tripinfo id="66" depart="71.00" departLane="-260998164#3_0" departPos="5.10" departSpeed="0.00" departDelay="3.00" arrival="189.00" arrivalLane="15374898#0-AddedOffRampEdge_1" arrivalPos="100.00" arrivalSpeed="25.07" duration="118.00" routeLength="1332.80" waitingTime="48.00" waitingCount="1" stopTime="0.00" timeLoss="66.82" rerouteNo="0" devices="tripinfo_66" vType="DEFAULT_VEHTYPE" speedFactor="0.94" vaporized=""/>
    <tripinfo id="29" depart="24.00" departLane="105681660#12_0" departPos="5.10" departSpeed="0.00" departDelay="0.00" arrival="190.00" arrivalLane="260998164#0_0" arrivalPos="257.55" arrivalSpeed="25.81" duration="166.00" routeLength="2169.41" waitingTime="21.00" waitingCount="4" stopTime="0.00" timeLoss="54.99" rerouteNo="0" devices="tripinfo_29" vType="DEFAULT_VEHTYPE" speedFactor="0.95" vaporized=""/>
    <tripinfo id="57" depart="60.00" departLane="-260998164#3_0" departPos="5.10" departSpeed="0.00" departDelay="0.00" arrival="190.00" arrivalLane="15374898#0-AddedOffRampEdge_0" arrivalPos="100.00" arrivalSpeed="26.50" duration="130.00" routeLength="1332.80" waitingTime="58.00" waitingCount="1" stopTime="0.00" timeLoss="81.33" rerouteNo="0" devices="tripinfo_57" vType="DEFAULT_VEHTYPE" speedFactor="1.00" vaporized=""/>
    <tripinfo id="84" depart="94.00" departLane="918280985_0" departPos="5.10" departSpeed="0.00" departDelay="0.00" arrival="192.00" arrivalLane="260998164#0_0" arrivalPos="257.55" arrivalSpeed="27.89" duration="98.00" routeLength="1460.33" waitingTime="11.00" waitingCount="1" stopTime="0.00" timeLoss="41.55" rerouteNo="0" devices="tripinfo_84" vType="DEFAULT_VEHTYPE" speedFactor="1.02" vaporized=""/>
    <tripinfo id="48" depart="49.00" departLane="318908683#0_0" departPos="5.10" departSpeed="0.00" departDelay="0.00" arrival="194.00" arrivalLane="-597602753#1_0" arrivalPos="143.59" arrivalSpeed="21.77" duration="145.00" routeLength="1208.14" waitingTime="61.00" waitingCount="2" stopTime="0.00" timeLoss="88.62" rerouteNo="0" devices="tripinfo_48" vType="DEFAULT_VEHTYPE" speedFactor="1.00" vaporized=""/>
    <tripinfo id="74" depart="87.00" departLane="-260998164#3_0" departPos="5.10" departSpeed="0.00" departDelay="6.00" arrival="194.00" arrivalLane="-318908683#1_0" arrivalPos="71.22" arrivalSpeed="12.49" duration="107.00" routeLength="955.07" waitingTime="53.00" waitingCount="1" stopTime="0.00" timeLoss="66.15" rerouteNo="0" devices="tripinfo_74" vType="DEFAULT_VEHTYPE" speedFactor="0.94" vaporized=""/>
    <tripinfo id="30" depart="25.00" departLane="422685671#2_0" departPos="5.10" departSpeed="0.00" departDelay="0.00" arrival="195.00" arrivalLane="422688976#1_0" arrivalPos="294.40" arrivalSpeed="30.55" duration="170.00" routeLength="1317.05" waitingTime="93.00" waitingCount="2" stopTime="0.00" timeLoss="126.42" rerouteNo="0" devices="tripinfo_30" vType="DEFAULT_VEHTYPE" speedFactor="1.13" vaporized=""/>
    <tripinfo id="19" depart="20.00" departLane="597602756#0_0" departPos="5.10" departSpeed="0.00" departDelay="3.00" arrival="196.00" arrivalLane="-318908683#1_0" arrivalPos="71.22" arrivalSpeed="11.92" duration="176.00" routeLength="1665.63" waitingTime="47.00" waitingCount="2" stopTime="0.00" timeLoss="77.96" rerouteNo="0" devices="tripinfo_19" vType="DEFAULT_VEHTYPE" speedFactor="0.94" vaporized=""/>
    <tripinfo id="36" depart="30.00" departLane="422685671#2_0" departPos="5.10" departSpeed="0.00" departDelay="0.00" arrival="196.00" arrivalLane="422688976#1_0" arrivalPos="294.40" arrivalSpeed="26.44" duration="166.00" routeLength="1317.05" waitingTime="79.00" waitingCount="3" stopTime="0.00" timeLoss="116.35" rerouteNo="0" devices="tripinfo_36" vType="DEFAULT_VEHTYPE" speedFactor="0.99" vaporized=""/>
    <tripinfo id="61" depart="64.00" departLane="-260998164#3_0" departPos="5.10" departSpeed="0.00" departDelay="0.00" arrival="196.00" arrivalLane="422688976#1_1" arrivalPos="294.40" arrivalSpeed="26.40" duration="132.00" routeLength="1702.46" waitingTime="38.00" waitingCount="2" stopTime="0.00" timeLoss="67.89" rerouteNo="0" devices="tripinfo_61" vType="DEFAULT_VEHTYPE" speedFactor="0.97" vaporized=""/>
    <tripinfo id="90" depart="99.00" departLane="318908683#0_0" departPos="5.10" departSpeed="0.00" departDelay="0.00" arrival="196.00" arrivalLane="-597602753#1_0" arrivalPos="143.59" arrivalSpeed="22.35" duration="97.00" routeLength="1208.14" waitingTime="9.00" waitingCount="1" stopTime="0.00" timeLoss="40.23" rerouteNo="0" devices="tripinfo_90" vType="DEFAULT_VEHTYPE" speedFactor="1.01" vaporized=""/>
    <tripinfo id="41" depart="34.00" departLane="105681660#12_0" departPos="5.10" departSpeed="0.00" departDelay="0.00" arrival="199.00" arrivalLane="-318908683#1_0" arrivalPos="71.22" arrivalSpeed="11.87" duration="165.00" routeLength="1835.34" waitingTime="10.00" waitingCount="4" stopTime="0.00" timeLoss="56.51" rerouteNo="0" devices="tripinfo_41" vType="DEFAULT_VEHTYPE" speedFactor="0.90" vaporized=""/>
    <tripinfo id="95" depart="102.00" departLane="318908683#0_0" departPos="5.10" departSpeed="0.00" departDelay="1.00" arrival="200.00" arrivalLane="-597602753#1_0" arrivalPos="143.59" arrivalSpeed="19.92" duration="98.00" routeLength="1208.14" waitingTime="7.00" waitingCount="1" stopTime="0.00" timeLoss="36.27" rerouteNo="0" devices="tripinfo_95" vType="DEFAULT_VEHTYPE" speedFactor="0.92" vaporized=""/>
    <tripinfo id="96" depart="103.00" departLane="597602756#0_0" departPos="5.10" departSpeed="0.00" departDelay="0.00" arrival="200.00" arrivalLane="-318908683#1_0" arrivalPos="71.22" arrivalSpeed="15.04" duration="97.00" routeLength="1382.88" waitingTime="1.00" waitingCount="1" stopTime="0.00" timeLoss="27.80" rerouteNo="0" devices="tripinfo_96" vType="DEFAULT_VEHTYPE" speedFactor="1.09" vaporized=""/>
    <tripinfo id="64" depart="66.00" departLane="422685671#2_0" departPos="5.10" departSpeed="0.00" departDelay="0.00" arrival="203.00" arrivalLane="-105681660#20_0" arrivalPos="806.12" arrivalSpeed="22.44" duration="137.00" routeLength="1813.05" waitingTime="22.00" waitingCount="2" stopTime="0.00" timeLoss="57.60" rerouteNo="0" devices="tripinfo_64" vType="DEFAULT_VEHTYPE" speedFactor="1.02" vaporized=""/>
    <tripinfo id="50" depart="52.00" departLane="318908683#0_0" departPos="5.10" departSpeed="0.00" departDelay="0.00" arrival="204.00" arrivalLane="-597602756#0_0" arrivalPos="325.99" arrivalSpeed="19.37" duration="152.00" routeLength="1401.85" waitingTime="54.00" waitingCount="1" stopTime="0.00" timeLoss="76.80" rerouteNo="0" devices="tripinfo_50" vType="DEFAULT_VEHTYPE" speedFactor="0.88" vaporized=""/>
    <tripinfo id="60" depart="63.00" departLane="597602753#0_0" departPos="5.10" departSpeed="0.00" departDelay="0.00" arrival="205.00" arrivalLane="918280984_0" arrivalPos="38.78" arrivalSpeed="13.77" duration="142.00" routeLength="1540.95" waitingTime="35.00" waitingCount="3" stopTime="0.00" timeLoss="74.77" rerouteNo="0" devices="tripinfo_60" vType="DEFAULT_VEHTYPE" speedFactor="1.02" vaporized=""/>
    <tripinfo id="101" depart="106.00" departLane="318908683#0_0" departPos="5.10" departSpeed="0.00" departDelay="0.00" arrival="205.00" arrivalLane="-597602756#0_0" arrivalPos="325.99" arrivalSpeed="20.82" duration="99.00" routeLength="1401.85" waitingTime="5.00" waitingCount="1" stopTime="0.00" timeLoss="38.47" rerouteNo="0" devices="tripinfo_101" vType="DEFAULT_VEHTYPE" speedFactor="1.10" vaporized=""/>
    <tripinfo id="88" depart="97.00" departLane="-260998164#3_0" departPos="5.10" departSpeed="0.00" departDelay="0.00" arrival="207.00" arrivalLane="918280984_0" arrivalPos="38.78" arrivalSpeed="12.83" duration="110.00" routeLength="1455.19" waitingTime="23.00" waitingCount="2" stopTime="0.00" timeLoss="53.62" rerouteNo="0" devices="tripinfo_88" vType="DEFAULT_VEHTYPE" speedFactor="1.00" vaporized=""/>