<?xml version="1.0" encoding="UTF-8"?>

<!-- generated on 2023-04-28 21:53:40 by Eclipse SUMO sumo Version 1.16.0
<configuration xmlns:xsi="http://www.w3.org/2001/XMLSchema-instance" xsi:noNamespaceSchemaLocation="http://sumo.dlr.de/xsd/sumoConfiguration.xsd">

    <input>
        <net-file value="C:\Users\Local_Man\Desktop\Stolen%20Music\school%20stuff%20for%20college\Semester%2015%20(UH%20Graduate%20School)\COSC%206364%20Nikolaos\SUMO_Project\COSC6364_Project\configurations\maps\Braess_Homebrew_fixed1.net.xml"/>
        <route-files value="./configurations/Rounds/Braess_Homebrew_fixed1.net.xml-test-1/Macroscopic_DUE/022/Trips_File_022.rou.xml"/>
    </input>

    <output>
        <summary-output value="./configurations/Rounds/Braess_Homebrew_fixed1.net.xml-test-1/Macroscopic_DUE/022/summary.xml"/>
        <tripinfo-output value="./configurations/Rounds/Braess_Homebrew_fixed1.net.xml-test-1/Macroscopic_DUE/022/trips.trips.xml"/>
        <statistic-output value="./configurations/Rounds/Braess_Homebrew_fixed1.net.xml-test-1/Macroscopic_DUE/022/stats_output.xml"/>
    </output>

    <time>
        <begin value="0"/>
    </time>

    <report>
        <log value="./configurations/Rounds/Braess_Homebrew_fixed1.net.xml-test-1/Macroscopic_DUE/022/log.sumo.log"/>
        <no-step-log value="true"/>
    </report>

    <gui_only>
        <quit-on-end value="true"/>
    </gui_only>

</configuration>
-->

<tripinfos xmlns:xsi="http://www.w3.org/2001/XMLSchema-instance" xsi:noNamespaceSchemaLocation="http://sumo.dlr.de/xsd/tripinfo_file.xsd">
    <tripinfo id="2" depart="1.00" departLane="E0_0" departPos="5.10" departSpeed="19.50" departDelay="0.00" arrival="95.00" arrivalLane="E3_0" arrivalPos="90.46" arrivalSpeed="28.39" duration="94.00" routeLength="1314.99" waitingTime="0.00" waitingCount="0" stopTime="0.00" timeLoss="9.94" rerouteNo="0" devices="tripinfo_2" vType="DEFAULT_VEHTYPE" speedFactor="0.98" vaporized=""/>
    <tripinfo id="4" depart="5.00" departLane="E0_0" departPos="5.10" departSpeed="18.97" departDelay="0.00" arrival="97.00" arrivalLane="E3_0" arrivalPos="90.46" arrivalSpeed="31.67" duration="92.00" routeLength="1314.99" waitingTime="0.00" waitingCount="0" stopTime="0.00" timeLoss="23.20" rerouteNo="0" devices="tripinfo_4" vType="DEFAULT_VEHTYPE" speedFactor="1.20" vaporized=""/>
    <tripinfo id="5" depart="6.00" departLane="E0_0" departPos="5.10" departSpeed="17.18" departDelay="0.00" arrival="98.00" arrivalLane="E3_0" arrivalPos="90.46" arrivalSpeed="31.12" duration="92.00" routeLength="1314.99" waitingTime="0.00" waitingCount="0" stopTime="0.00" timeLoss="13.31" rerouteNo="0" devices="tripinfo_5" vType="DEFAULT_VEHTYPE" speedFactor="1.05" vaporized=""/>
    <tripinfo id="7" depart="8.00" departLane="E0_0" departPos="5.10" departSpeed="11.11" departDelay="1.00" arrival="110.00" arrivalLane="E3_0" arrivalPos="90.46" arrivalSpeed="27.68" duration="102.00" routeLength="1314.99" waitingTime="0.00" waitingCount="0" stopTime="0.00" timeLoss="14.33" rerouteNo="0" devices="tripinfo_7" vType="DEFAULT_VEHTYPE" speedFactor="0.94" vaporized=""/>
    <tripinfo id="9" depart="11.00" departLane="E0_0" departPos="5.10" departSpeed="8.90" departDelay="3.00" arrival="112.00" arrivalLane="E3_0" arrivalPos="90.46" arrivalSpeed="30.84" duration="101.00" routeLength="1314.99" waitingTime="0.00" waitingCount="0" stopTime="0.00" timeLoss="24.87" rerouteNo="0" devices="tripinfo_9" vType="DEFAULT_VEHTYPE" speedFactor="1.09" vaporized=""/>
    <tripinfo id="10" depart="12.00" departLane="E0_0" departPos="5.10" departSpeed="3.23" departDelay="4.00" arrival="120.00" arrivalLane="E3_0" arrivalPos="90.46" arrivalSpeed="26.90" duration="108.00" routeLength="1314.99" waitingTime="0.00" waitingCount="0" stopTime="0.00" timeLoss="19.03" rerouteNo="0" devices="tripinfo_10" vType="DEFAULT_VEHTYPE" speedFactor="0.92" vaporized=""/>
    <tripinfo id="13" depart="19.00" departLane="E0_0" departPos="5.10" departSpeed="1.76" departDelay="8.00" arrival="126.00" arrivalLane="E3_0" arrivalPos="90.46" arrivalSpeed="27.23" duration="107.00" routeLength="1314.99" waitingTime="0.00" waitingCount="0" stopTime="0.00" timeLoss="18.61" rerouteNo="0" devices="tripinfo_13" vType="DEFAULT_VEHTYPE" speedFactor="0.93" vaporized=""/>
    <tripinfo id="15" depart="24.00" departLane="E0_0" departPos="5.10" departSpeed="1.05" departDelay="12.00" arrival="130.00" arrivalLane="E3_0" arrivalPos="90.46" arrivalSpeed="26.80" duration="106.00" routeLength="1314.99" waitingTime="0.00" waitingCount="0" stopTime="0.00" timeLoss="17.88" rerouteNo="0" devices="tripinfo_15" vType="DEFAULT_VEHTYPE" speedFactor="0.94" vaporized=""/>
    <tripinfo id="16" depart="27.00" departLane="E0_0" departPos="5.10" departSpeed="0.64" departDelay="13.00" arrival="131.00" arrivalLane="E3_0" arrivalPos="90.46" arrivalSpeed="28.93" duration="104.00" routeLength="1314.99" waitingTime="0.00" waitingCount="0" stopTime="0.00" timeLoss="28.07" rerouteNo="0" devices="tripinfo_16" vType="DEFAULT_VEHTYPE" speedFactor="1.08" vaporized=""/>
    <tripinfo id="17" depart="31.00" departLane="E0_0" departPos="5.10" departSpeed="6.29" departDelay="16.00" arrival="132.00" arrivalLane="E3_0" arrivalPos="90.46" arrivalSpeed="28.74" duration="101.00" routeLength="1314.99" waitingTime="0.00" waitingCount="0" stopTime="0.00" timeLoss="20.01" rerouteNo="0" devices="tripinfo_17" vType="DEFAULT_VEHTYPE" speedFactor="1.01" vaporized=""/>
    <tripinfo id="18" depart="33.00" departLane="E0_0" departPos="5.10" departSpeed="6.11" departDelay="17.00" arrival="134.00" arrivalLane="E3_0" arrivalPos="90.46" arrivalSpeed="30.08" duration="101.00" routeLength="1314.99" waitingTime="0.00" waitingCount="0" stopTime="0.00" timeLoss="20.98" rerouteNo="0" devices="tripinfo_18" vType="DEFAULT_VEHTYPE" speedFactor="1.03" vaporized=""/>
    <tripinfo id="19" depart="35.00" departLane="E0_0" departPos="5.10" departSpeed="6.80" departDelay="18.00" arrival="145.00" arrivalLane="E3_0" arrivalPos="90.46" arrivalSpeed="25.95" duration="110.00" routeLength="1314.99" waitingTime="0.00" waitingCount="0" stopTime="0.00" timeLoss="17.02" rerouteNo="0" devices="tripinfo_19" vType="DEFAULT_VEHTYPE" speedFactor="0.89" vaporized=""/>
    <tripinfo id="26" depart="49.00" departLane="E0_0" departPos="5.10" departSpeed="8.94" departDelay="28.00" arrival="146.00" arrivalLane="E3_0" arrivalPos="90.46" arrivalSpeed="28.84" duration="97.00" routeLength="1314.99" waitingTime="0.00" waitingCount="0" stopTime="0.00" timeLoss="23.53" rerouteNo="0" devices="tripinfo_26" vType="DEFAULT_VEHTYPE" speedFactor="1.12" vaporized=""/>
    <tripinfo id="29" depart="55.00" departLane="E0_0" departPos="5.10" departSpeed="5.19" departDelay="31.00" arrival="153.00" arrivalLane="E3_0" arrivalPos="90.46" arrivalSpeed="29.79" duration="98.00" routeLength="1314.99" waitingTime="0.00" waitingCount="0" stopTime="0.00" timeLoss="17.52" rerouteNo="0" devices="tripinfo_29" vType="DEFAULT_VEHTYPE" speedFactor="1.02" vaporized=""/>
    <tripinfo id="3" depart="4.00" departLane="E0_0" departPos="5.10" departSpeed="21.65" departDelay="0.00" arrival="163.00" arrivalLane="E3_0" arrivalPos="90.46" arrivalSpeed="24.60" duration="159.00" routeLength="1317.38" waitingTime="59.00" waitingCount="1" stopTime="0.00" timeLoss="79.79" rerouteNo="0" devices="tripinfo_3" vType="DEFAULT_VEHTYPE" speedFactor="1.08" vaporized=""/>
    <tripinfo id="30" depart="57.00" departLane="E0_0" departPos="5.10" departSpeed="5.85" departDelay="32.00" arrival="165.00" arrivalLane="E3_0" arrivalPos="90.46" arrivalSpeed="27.91" duration="108.00" routeLength="1314.99" waitingTime="0.00" waitingCount="0" stopTime="0.00" timeLoss="19.98" rerouteNo="0" devices="tripinfo_30" vType="DEFAULT_VEHTYPE" speedFactor="0.94" vaporized=""/>
    <tripinfo id="31" depart="59.00" departLane="E0_0" departPos="5.10" departSpeed="6.73" departDelay="33.00" arrival="166.00" arrivalLane="E3_0" arrivalPos="90.46" arrivalSpeed="28.22" duration="107.00" routeLength="1314.99" waitingTime="0.00" waitingCount="0" stopTime="0.00" timeLoss="32.30" rerouteNo="0" devices="tripinfo_31" vType="DEFAULT_VEHTYPE" speedFactor="1.10" vaporized=""/>
    <tripinfo id="32" depart="61.00" departLane="E0_0" departPos="5.10" departSpeed="5.66" departDelay="35.00" arrival="178.00" arrivalLane="E3_0" arrivalPos="90.46" arrivalSpeed="24.83" duration="117.00" routeLength="1314.99" waitingTime="0.00" waitingCount="0" stopTime="0.00" timeLoss="18.01" rerouteNo="0" devices="tripinfo_32" vType="DEFAULT_VEHTYPE" speedFactor="0.83" vaporized=""/>
    <tripinfo id="34" depart="66.00" departLane="E0_0" departPos="5.10" departSpeed="3.21" departDelay="35.00" arrival="179.00" arrivalLane="E3_0" arrivalPos="90.46" arrivalSpeed="26.13" duration="113.00" routeLength="1314.99" waitingTime="0.00" waitingCount="0" stopTime="0.00" timeLoss="35.91" rerouteNo="0" devices="tripinfo_34" vType="DEFAULT_VEHTYPE" speedFactor="1.07" vaporized=""/>
    <tripinfo id="6" depart="7.00" departLane="E0_0" departPos="5.10" departSpeed="14.30" departDelay="1.00" arrival="188.00" arrivalLane="E3_0" arrivalPos="90.46" arrivalSpeed="25.96" duration="181.00" routeLength="1317.38" waitingTime="74.00" waitingCount="2" stopTime="0.00" timeLoss="101.09" rerouteNo="0" devices="tripinfo_6" vType="DEFAULT_VEHTYPE" speedFactor="1.08" vaporized=""/>
    <tripinfo id="36" depart="71.00" departLane="E0_0" departPos="5.10" departSpeed="5.50" departDelay="33.00" arrival="197.00" arrivalLane="E3_0" arrivalPos="90.46" arrivalSpeed="22.55" duration="126.00" routeLength="1314.99" waitingTime="0.00" waitingCount="0" stopTime="0.00" timeLoss="19.40" rerouteNo="0" devices="tripinfo_36" vType="DEFAULT_VEHTYPE" speedFactor="0.77" vaporized=""/>
    <tripinfo id="38" depart="75.00" departLane="E0_0" departPos="5.10" departSpeed="4.68" departDelay="37.00" arrival="198.00" arrivalLane="E3_0" arrivalPos="90.46" arrivalSpeed="24.87" duration="123.00" routeLength="1314.99" waitingTime="0.00" waitingCount="0" stopTime="0.00" timeLoss="42.79" rerouteNo="0" devices="tripinfo_38" vType="DEFAULT_VEHTYPE" speedFactor="1.02" vaporized=""/>
    <tripinfo id="39" depart="77.00" departLane="E0_0" departPos="5.10" departSpeed="4.19" departDelay="38.00" arrival="200.00" arrivalLane="E3_0" arrivalPos="90.46" arrivalSpeed="25.33" duration="123.00" routeLength="1314.99" waitingTime="0.00" waitingCount="0" stopTime="0.00" timeLoss="28.96" rerouteNo="0" devices="tripinfo_39" vType="DEFAULT_VEHTYPE" speedFactor="0.88" vaporized=""/>
    <tripinfo id="42" depart="86.00" departLane="E0_0" departPos="5.10" departSpeed="6.43" departDelay="45.00" arrival="201.00" arrivalLane="E3_0" arrivalPos="90.46" arrivalSpeed="27.72" duration="115.00" routeLength="1314.99" waitingTime="0.00" waitingCount="0" stopTime="0.00" timeLoss="36.74" rerouteNo="0" devices="tripinfo_42" vType="DEFAULT_VEHTYPE" speedFactor="1.05" vaporized=""/>
    <tripinfo id="43" depart="88.00" departLane="E0_0" departPos="5.10" departSpeed="7.21" departDelay="46.00" arrival="203.00" arrivalLane="E3_0" arrivalPos="90.46" arrivalSpeed="28.36" duration="115.00" routeLength="1314.99" waitingTime="0.00" waitingCount="0" stopTime="0.00" timeLoss="32.82" rerouteNo="0" devices="tripinfo_43" vType="DEFAULT_VEHTYPE" speedFactor="1.00" vaporized=""/>
    <tripinfo id="44" depart="90.00" departLane="E0_0" departPos="5.10" departSpeed="8.25" departDelay="46.00" arrival="204.00" arrivalLane="E3_0" arrivalPos="90.46" arrivalSpeed="27.60" duration="114.00" routeLength="1314.99" waitingTime="0.00" waitingCount="0" stopTime="0.00" timeLoss="39.29" rerouteNo="0" devices="tripinfo_44" vType="DEFAULT_VEHTYPE" speedFactor="1.10" vaporized=""/>
    <tripinfo id="45" depart="91.00" departLane="E0_0" departPos="5.10" departSpeed="4.01" departDelay="47.00" arrival="206.00" arrivalLane="E3_0" arrivalPos="90.46" arrivalSpeed="26.12" duration="115.00" routeLength="1314.99" waitingTime="0.00" waitingCount="0" stopTime="0.00" timeLoss="23.73" rerouteNo="0" devices="tripinfo_45" vType="DEFAULT_VEHTYPE" speedFactor="0.90" vaporized=""/>
    <tripinfo id="46" depart="93.00" departLane="E0_0" departPos="5.10" departSpeed="0.52" departDelay="48.00" arrival="207.00" arrivalLane="E3_0" arrivalPos="90.46" arrivalSpeed="28.10" duration="114.00" routeLength="1314.99" waitingTime="0.00" waitingCount="0" stopTime="0.00" timeLoss="28.90" rerouteNo="0" devices="tripinfo_46" vType="DEFAULT_VEHTYPE" speedFactor="0.96" vaporized=""/>
    <tripinfo id="50" depart="104.00" departLane="E0_0" departPos="5.10" departSpeed="6.05" departDelay="51.00" arrival="209.00" arrivalLane="E3_0" arrivalPos="90.46" arrivalSpeed="29.72" duration="105.00" routeLength="1314.99" waitingTime="0.00" waitingCount="0" stopTime="0.00" timeLoss="22.55" rerouteNo="0" devices="tripinfo_50" vType="DEFAULT_VEHTYPE" speedFactor="1.00" vaporized=""/>
    <tripinfo id="51" depart="106.00" departLane="E0_0" departPos="5.10" departSpeed="6.53" departDelay="52.00" arrival="210.00" arrivalLane="E3_0" arrivalPos="90.46" arrivalSpeed="29.02" duration="104.00" routeLength="1314.99" waitingTime="0.00" waitingCount="0" stopTime="0.00" timeLoss="20.30" rerouteNo="0" devices="tripinfo_51" vType="DEFAULT_VEHTYPE" speedFactor="0.99" vaporized=""/>
    <tripinfo id="8" depart="9.00" departLane="E0_0" departPos="5.10" departSpeed="7.90" departDelay="2.00" arrival="219.00" arrivalLane="E3_0" arrivalPos="90.46" arrivalSpeed="24.24" duration="210.00" routeLength="1317.38" waitingTime="91.00" waitingCount="3" stopTime="0.00" timeLoss="125.97" rerouteNo="0" devices="tripinfo_8" vType="DEFAULT_VEHTYPE" speedFactor="1.02" vaporized=""/>
    <tripinfo id="53" depart="110.00" departLane="E0_0" departPos="5.10" departSpeed="6.07" departDelay="55.00" arrival="222.00" arrivalLane="E3_0" arrivalPos="90.46" arrivalSpeed="26.00" duration="112.00" routeLength="1314.99" waitingTime="0.00" waitingCount="0" stopTime="0.00" timeLoss="20.94" rerouteNo="0" devices="tripinfo_53" vType="DEFAULT_VEHTYPE" speedFactor="0.91" vaporized=""/>
    <tripinfo id="54" depart="112.00" departLane="E0_0" departPos="5.10" departSpeed="4.82" departDelay="57.00" arrival="223.00" arrivalLane="E3_0" arrivalPos="90.46" arrivalSpeed="27.52" duration="111.00" routeLength="1314.99" waitingTime="0.00" waitingCount="0" stopTime="0.00" timeLoss="24.07" rerouteNo="0" devices="tripinfo_54" vType="DEFAULT_VEHTYPE" speedFactor="0.95" vaporized=""/>
    <tripinfo id="56" depart="116.00" departLane="E0_0" departPos="5.10" departSpeed="1.23" departDelay="59.00" arrival="226.00" arrivalLane="E3_0" arrivalPos="90.46" arrivalSpeed="27.16" duration="110.00" routeLength="1314.99" waitingTime="0.00" waitingCount="0" stopTime="0.00" timeLoss="21.25" rerouteNo="0" devices="tripinfo_56" vType="DEFAULT_VEHTYPE" speedFactor="0.93" vaporized=""/>
    <tripinfo id="62" depart="133.00" departLane="E0_0" departPos="5.10" departSpeed="4.44" departDelay="71.00" arrival="242.00" arrivalLane="E3_0" arrivalPos="90.46" arrivalSpeed="26.18" duration="109.00" routeLength="1314.99" waitingTime="0.00" waitingCount="0" stopTime="0.00" timeLoss="17.05" rerouteNo="0" devices="tripinfo_62" vType="DEFAULT_VEHTYPE" speedFactor="0.90" vaporized=""/>
    <tripinfo id="65" depart="141.00" departLane="E0_0" departPos="5.10" departSpeed="5.08" departDelay="77.00" arrival="243.00" arrivalLane="E3_0" arrivalPos="90.46" arrivalSpeed="28.44" duration="102.00" routeLength="1314.99" waitingTime="0.00" waitingCount="0" stopTime="0.00" timeLoss="17.85" rerouteNo="0" devices="tripinfo_65" vType="DEFAULT_VEHTYPE" speedFactor="0.98" vaporized=""/>
    <tripinfo id="66" depart="143.00" departLane="E0_0" departPos="5.10" departSpeed="3.12" departDelay="79.00" arrival="245.00" arrivalLane="E3_0" arrivalPos="90.46" arrivalSpeed="29.24" duration="102.00" routeLength="1314.99" waitingTime="0.00" waitingCount="0" stopTime="0.00" timeLoss="17.53" rerouteNo="0" devices="tripinfo_66" vType="DEFAULT_VEHTYPE" speedFactor="0.98" vaporized=""/>
    <tripinfo id="68" depart="148.00" departLane="E0_0" departPos="5.10" departSpeed="3.62" departDelay="80.00" arrival="252.00" arrivalLane="E3_0" arrivalPos="90.46" arrivalSpeed="27.90" duration="104.00" routeLength="1314.99" waitingTime="0.00" waitingCount="0" stopTime="0.00" timeLoss="16.49" rerouteNo="0" devices="tripinfo_68" vType="DEFAULT_VEHTYPE" speedFactor="0.94" vaporized=""/>
    <tripinfo id="75" depart="164.00" departLane="E0_0" departPos="5.10" departSpeed="8.50" departDelay="87.00" arrival="254.00" arrivalLane="E3_0" arrivalPos="90.46" arrivalSpeed="31.76" duration="90.00" routeLength="1314.99" waitingTime="0.00" waitingCount="0" stopTime="0.00" timeLoss="14.60" rerouteNo="0" devices="tripinfo_75" vType="DEFAULT_VEHTYPE" speedFactor="1.10" vaporized=""/>
    <tripinfo id="76" depart="165.00" departLane="E0_0" departPos="5.10" departSpeed="3.99" departDelay="87.00" arrival="255.00" arrivalLane="E3_0" arrivalPos="90.46" arrivalSpeed="32.67" duration="90.00" routeLength="1314.99" waitingTime="0.00" waitingCount="0" stopTime="0.00" timeLoss="17.76" rerouteNo="0" devices="tripinfo_76" vType="DEFAULT_VEHTYPE" speedFactor="1.14" vaporized=""/>
    <tripinfo id="11" depart="15.00" departLane="E0_0" departPos="5.10" departSpeed="5.09" departDelay="6.00" arrival="264.00" arrivalLane="E3_0" arrivalPos="90.46" arrivalSpeed="24.76" duration="249.00" routeLength="1317.38" waitingTime="127.00" waitingCount="4" stopTime="0.00" timeLoss="172.70" rerouteNo="0" devices="tripinfo_11" vType="DEFAULT_VEHTYPE" speedFactor="1.12" vaporized=""/>
    <tripinfo id="80" depart="174.00" departLane="E0_0" departPos="5.10" departSpeed="7.26" departDelay="88.00" arrival="267.00" arrivalLane="E3_0" arrivalPos="90.46" arrivalSpeed="31.51" duration="93.00" routeLength="1314.99" waitingTime="0.00" waitingCount="0" stopTime="0.00" timeLoss="16.97" rerouteNo="0" devices="tripinfo_80" vType="DEFAULT_VEHTYPE" speedFactor="1.08" vaporized=""/>
    <tripinfo id="83" depart="180.00" departLane="E0_0" departPos="5.10" departSpeed="8.75" departDelay="89.00" arrival="274.00" arrivalLane="E3_0" arrivalPos="90.46" arrivalSpeed="31.66" duration="94.00" routeLength="1314.99" waitingTime="0.00" waitingCount="0" stopTime="0.00" timeLoss="16.35" rerouteNo="0" devices="tripinfo_83" vType="DEFAULT_VEHTYPE" speedFactor="1.06" vaporized=""/>
    <tripinfo id="86" depart="185.00" departLane="E0_0" departPos="5.10" departSpeed="6.05" departDelay="91.00" arrival="285.00" arrivalLane="E3_0" arrivalPos="90.46" arrivalSpeed="29.58" duration="100.00" routeLength="1314.99" waitingTime="0.00" waitingCount="0" stopTime="0.00" timeLoss="19.80" rerouteNo="0" devices="tripinfo_86" vType="DEFAULT_VEHTYPE" speedFactor="1.02" vaporized=""/>
    <tripinfo id="89" depart="190.00" departLane="E0_0" departPos="5.10" departSpeed="3.25" departDelay="93.00" arrival="287.00" arrivalLane="E3_0" arrivalPos="90.46" arrivalSpeed="33.96" duration="97.00" routeLength="1314.99" waitingTime="0.00" waitingCount="0" stopTime="0.00" timeLoss="26.54" rerouteNo="0" devices="tripinfo_89" vType="DEFAULT_VEHTYPE" speedFactor="1.18" vaporized=""/>
    <tripinfo id="12" depart="17.00" departLane="E0_0" departPos="5.10" departSpeed="4.46" departDelay="6.00" arrival="297.00" arrivalLane="E3_0" arrivalPos="90.46" arrivalSpeed="23.82" duration="280.00" routeLength="1317.38" waitingTime="138.00" waitingCount="5" stopTime="0.00" timeLoss="184.42" rerouteNo="0" devices="tripinfo_12" vType="DEFAULT_VEHTYPE" speedFactor="0.90" vaporized=""/>
    <tripinfo id="92" depart="197.00" departLane="E0_0" departPos="5.10" departSpeed="0.48" departDelay="99.00" arrival="300.00" arrivalLane="E3_0" arrivalPos="90.46" arrivalSpeed="28.87" duration="103.00" routeLength="1314.99" waitingTime="0.00" waitingCount="0" stopTime="0.00" timeLoss="18.46" rerouteNo="0" devices="tripinfo_92" vType="DEFAULT_VEHTYPE" speedFactor="0.98" vaporized=""/>
    <tripinfo id="93" depart="200.00" departLane="E0_0" departPos="5.10" departSpeed="0.36" departDelay="101.00" arrival="307.00" arrivalLane="E3_0" arrivalPos="90.46" arrivalSpeed="27.28" duration="107.00" routeLength="1314.99" waitingTime="0.00" waitingCount="0" stopTime="0.00" timeLoss="19.63" rerouteNo="0" devices="tripinfo_93" vType="DEFAULT_VEHTYPE" speedFactor="0.94" vaporized=""/>
    <tripinfo id="94" depart="204.00" departLane="E0_0" departPos="5.10" departSpeed="6.75" departDelay="105.00" arrival="308.00" arrivalLane="E3_0" arrivalPos="90.46" arrivalSpeed="28.76" duration="104.00" routeLength="1314.99" waitingTime="0.00" waitingCount="0" stopTime="0.00" timeLoss="24.39" rerouteNo="0" devices="tripinfo_94" vType="DEFAULT_VEHTYPE" speedFactor="1.03" vaporized=""/>
    <tripinfo id="96" depart="208.00" departLane="E0_0" departPos="5.10" departSpeed="8.86" departDelay="108.00" arrival="318.00" arrivalLane="E3_0" arrivalPos="90.46" arrivalSpeed="25.49" duration="110.00" routeLength="1314.99" waitingTime="0.00" waitingCount="0" stopTime="0.00" timeLoss="17.02" rerouteNo="0" devices="tripinfo_96" vType="DEFAULT_VEHTYPE" speedFactor="0.89" vaporized=""/>
    <tripinfo id="100" depart="216.00" departLane="E0_0" departPos="5.10" departSpeed="5.31" departDelay="114.00" arrival="319.00" arrivalLane="E3_0" arrivalPos="90.46" arrivalSpeed="28.72" duration="103.00" routeLength="1314.99" waitingTime="0.00" waitingCount="0" stopTime="0.00" timeLoss="28.65" rerouteNo="0" devices="tripinfo_100" vType="DEFAULT_VEHTYPE" speedFactor="1.10" vaporized=""/>
    <tripinfo id="14" depart="22.00" departLane="E0_0" departPos="5.10" departSpeed="3.24" departDelay="10.00" arrival="328.00" arrivalLane="E3_0" arrivalPos="90.46" arrivalSpeed="23.28" duration="306.00" routeLength="1317.38" waitingTime="160.00" waitingCount="6" stopTime="0.00" timeLoss="223.95" rerouteNo="0" devices="tripinfo_14" vType="DEFAULT_VEHTYPE" speedFactor="1.04" vaporized=""/>
    <tripinfo id="20" depart="37.00" departLane="E0_0" departPos="5.10" departSpeed="7.82" departDelay="20.00" arrival="335.00" arrivalLane="E3_0" arrivalPos="90.46" arrivalSpeed="25.25" duration="298.00" routeLength="1317.38" waitingTime="152.00" waitingCount="7" stopTime="0.00" timeLoss="212.59" rerouteNo="0" devices="tripinfo_20" vType="DEFAULT_VEHTYPE" speedFactor="1.01" vaporized=""/>
    <tripinfo id="102" depart="220.00" departLane="E0_0" departPos="5.10" departSpeed="5.89" departDelay="115.00" arrival="337.00" arrivalLane="E3_0" arrivalPos="90.46" arrivalSpeed="24.88" duration="117.00" routeLength="1314.99" waitingTime="0.00" waitingCount="0" stopTime="0.00" timeLoss="18.91" rerouteNo="0" devices="tripinfo_102" vType="DEFAULT_VEHTYPE" speedFactor="0.84" vaporized=""/>
    <tripinfo id="104" depart="224.00" departLane="E0_0" departPos="5.10" departSpeed="5.14" departDelay="118.00" arrival="339.00" arrivalLane="E3_0" arrivalPos="90.46" arrivalSpeed="29.27" duration="115.00" routeLength="1314.99" waitingTime="0.00" waitingCount="0" stopTime="0.00" timeLoss="35.04" rerouteNo="0" devices="tripinfo_104" vType="DEFAULT_VEHTYPE" speedFactor="1.04" vaporized=""/>
    <tripinfo id="106" depart="228.00" departLane="E0_0" departPos="5.10" departSpeed="5.82" departDelay="121.00" arrival="340.00" arrivalLane="E3_0" arrivalPos="90.46" arrivalSpeed="27.65" duration="112.00" routeLength="1314.99" waitingTime="0.00" waitingCount="0" stopTime="0.00" timeLoss="25.72" rerouteNo="0" devices="tripinfo_106" vType="DEFAULT_VEHTYPE" speedFactor="0.95" vaporized=""/>
    <tripinfo id="110" depart="239.00" departLane="E0_0" departPos="5.10" departSpeed="1.96" departDelay="127.00" arrival="341.00" arrivalLane="E3_0" arrivalPos="90.46" arrivalSpeed="28.95" duration="102.00" routeLength="1314.99" waitingTime="0.00" waitingCount="0" stopTime="0.00" timeLoss="21.11" rerouteNo="0" devices="tripinfo_110" vType="DEFAULT_VEHTYPE" speedFactor="1.01" vaporized=""/>
    <tripinfo id="111" depart="242.00" departLane="E0_0" departPos="5.10" departSpeed="0.97" departDelay="129.00" arrival="343.00" arrivalLane="E3_0" arrivalPos="90.46" arrivalSpeed="31.99" duration="101.00" routeLength="1314.99" waitingTime="0.00" waitingCount="0" stopTime="0.00" timeLoss="27.50" rerouteNo="0" devices="tripinfo_111" vType="DEFAULT_VEHTYPE" speedFactor="1.13" vaporized=""/>
    <tripinfo id="113" depart="248.00" departLane="E0_0" departPos="5.10" departSpeed="4.79" departDelay="133.00" arrival="355.00" arrivalLane="E3_0" arrivalPos="90.46" arrivalSpeed="26.01" duration="107.00" routeLength="1314.99" waitingTime="0.00" waitingCount="0" stopTime="0.00" timeLoss="14.76" rerouteNo="0" devices="tripinfo_113" vType="DEFAULT_VEHTYPE" speedFactor="0.89" vaporized=""/>
    <tripinfo id="114" depart="250.00" departLane="E0_0" departPos="5.10" departSpeed="5.02" departDelay="135.00" arrival="357.00" arrivalLane="E3_0" arrivalPos="90.46" arrivalSpeed="28.41" duration="107.00" routeLength="1314.99" waitingTime="0.00" waitingCount="0" stopTime="0.00" timeLoss="21.62" rerouteNo="0" devices="tripinfo_114" vType="DEFAULT_VEHTYPE" speedFactor="0.97" vaporized=""/>
    <tripinfo id="115" depart="252.00" departLane="E0_0" departPos="5.10" departSpeed="4.99" departDelay="135.00" arrival="358.00" arrivalLane="E3_0" arrivalPos="90.46" arrivalSpeed="29.56" duration="106.00" routeLength="1314.99" waitingTime="0.00" waitingCount="0" stopTime="0.00" timeLoss="27.06" rerouteNo="0" devices="tripinfo_115" vType="DEFAULT_VEHTYPE" speedFactor="1.04" vaporized=""/>
    <tripinfo id="120" depart="263.00" departLane="E0_0" departPos="5.10" departSpeed="5.76" departDelay="133.00" arrival="360.00" arrivalLane="E3_0" arrivalPos="90.46" arrivalSpeed="28.99" duration="97.00" routeLength="1314.99" waitingTime="0.00" waitingCount="0" stopTime="0.00" timeLoss="15.77" rerouteNo="0" devices="tripinfo_120" vType="DEFAULT_VEHTYPE" speedFactor="1.01" vaporized=""/>
    <tripinfo id="122" depart="267.00" departLane="E0_0" departPos="5.10" departSpeed="5.36" departDelay="134.00" arrival="368.00" arrivalLane="E3_0" arrivalPos="90.46" arrivalSpeed="29.01" duration="101.00" routeLength="1314.99" waitingTime="0.00" waitingCount="0" stopTime="0.00" timeLoss="18.08" rerouteNo="0" devices="tripinfo_122" vType="DEFAULT_VEHTYPE" speedFactor="1.00" vaporized=""/>
    <tripinfo id="21" depart="39.00" departLane="E0_0" departPos="5.10" departSpeed="8.84" departDelay="22.00" arrival="378.00" arrivalLane="E3_0" arrivalPos="90.46" arrivalSpeed="24.88" duration="339.00" routeLength="1317.38" waitingTime="180.00" waitingCount="7" stopTime="0.00" timeLoss="240.41" rerouteNo="0" devices="tripinfo_21" vType="DEFAULT_VEHTYPE" speedFactor="0.87" vaporized=""/>
    <tripinfo id="22" depart="40.00" departLane="E0_0" departPos="5.10" departSpeed="3.13" departDelay="23.00" arrival="379.00" arrivalLane="E3_0" arrivalPos="90.46" arrivalSpeed="23.42" duration="339.00" routeLength="1317.38" waitingTime="177.00" waitingCount="7" stopTime="0.00" timeLoss="256.02" rerouteNo="0" devices="tripinfo_22" vType="DEFAULT_VEHTYPE" speedFactor="1.03" vaporized=""/>
    <tripinfo id="23" depart="43.00" departLane="E0_0" departPos="5.10" departSpeed="6.19" departDelay="25.00" arrival="381.00" arrivalLane="E3_0" arrivalPos="90.46" arrivalSpeed="23.77" duration="338.00" routeLength="1317.38" waitingTime="168.00" waitingCount="8" stopTime="0.00" timeLoss="262.39" rerouteNo="0" devices="tripinfo_23" vType="DEFAULT_VEHTYPE" speedFactor="1.13" vaporized=""/>
    <tripinfo id="24" depart="45.00" departLane="E0_0" departPos="5.10" departSpeed="7.27" departDelay="27.00" arrival="383.00" arrivalLane="E3_0" arrivalPos="90.46" arrivalSpeed="22.83" duration="338.00" routeLength="1317.38" waitingTime="168.00" waitingCount="9" stopTime="0.00" timeLoss="242.65" rerouteNo="0" devices="tripinfo_24" vType="DEFAULT_VEHTYPE" speedFactor="0.89" vaporized=""/>
    <tripinfo id="124" depart="271.00" departLane="E0_0" departPos="5.10" departSpeed="4.33" departDelay="135.00" arrival="390.00" arrivalLane="E3_0" arrivalPos="90.46" arrivalSpeed="23.80" duration="119.00" routeLength="1314.99" waitingTime="0.00" waitingCount="0" stopTime="0.00" timeLoss="17.39" rerouteNo="0" devices="tripinfo_124" vType="DEFAULT_VEHTYPE" speedFactor="0.80" vaporized=""/>
    <tripinfo id="126" depart="275.00" departLane="E0_0" departPos="5.10" departSpeed="2.21" departDelay="138.00" arrival="392.00" arrivalLane="E3_0" arrivalPos="90.46" arrivalSpeed="26.32" duration="117.00" routeLength="1314.99" waitingTime="0.00" waitingCount="0" stopTime="0.00" timeLoss="32.19" rerouteNo="0" devices="tripinfo_126" vType="DEFAULT_VEHTYPE" speedFactor="0.97" vaporized=""/>
    <tripinfo id="127" depart="278.00" departLane="E0_0" departPos="5.10" departSpeed="4.51" departDelay="141.00" arrival="393.00" arrivalLane="E3_0" arrivalPos="90.46" arrivalSpeed="26.78" duration="115.00" routeLength="1314.99" waitingTime="0.00" waitingCount="0" stopTime="0.00" timeLoss="25.12" rerouteNo="0" devices="tripinfo_127" vType="DEFAULT_VEHTYPE" speedFactor="0.91" vaporized=""/>
    <tripinfo id="128" depart="280.00" departLane="E0_0" departPos="5.10" departSpeed="3.05" departDelay="142.00" arrival="395.00" arrivalLane="E3_0" arrivalPos="90.46" arrivalSpeed="28.66" duration="115.00" routeLength="1314.99" waitingTime="0.00" waitingCount="0" stopTime="0.00" timeLoss="41.96" rerouteNo="0" devices="tripinfo_128" vType="DEFAULT_VEHTYPE" speedFactor="1.13" vaporized=""/>
    <tripinfo id="129" depart="283.00" departLane="E0_0" departPos="5.10" departSpeed="5.67" departDelay="145.00" arrival="396.00" arrivalLane="E3_0" arrivalPos="90.46" arrivalSpeed="27.84" duration="113.00" routeLength="1314.99" waitingTime="0.00" waitingCount="0" stopTime="0.00" timeLoss="29.67" rerouteNo="0" devices="tripinfo_129" vType="DEFAULT_VEHTYPE" speedFactor="0.98" vaporized=""/>